System
40155
    1TCq1    O1    1   1.598   2.690  11.583
    1TCq1    C1    2   1.584   2.628  11.702
    1TCq1    O2    3   1.684   2.582  11.758
    1TCq1    C2    4   1.470   2.540  11.674
    1TCq1    C3    5   1.354   2.589  11.630
    1TCq1    C4    6   1.260   2.507  11.602
    1TCq1    C5    7   1.267   2.369  11.615
    1TCq1    C6    8   1.392   2.321  11.669
    1TCq1    C7    9   1.494   2.409  11.699
    1TCq1    C8   10   1.407   2.180  11.700
    1TCq1    O4   11   1.307   2.112  11.718
    1TCq1    C9   12   1.146   2.565  11.528
    1TCq1    O5   13   1.161   2.672  11.467
    1TCq1    O6   14   1.029   2.532  11.591
    1TCq1    H1   15   1.519   2.722  11.536
    1TCq1    H2   16   1.340   2.695  11.611
    1TCq1    H3   17   1.189   2.302  11.580
    1TCq1    H4   18   1.592   2.379  11.736
    2MPD2     C   19   1.730   1.800  11.854
    2MPD2    C1   20   1.594   1.796  11.845
    2MPD2    C2   21   1.526   1.905  11.775
    2MPD2    C3   22   1.596   2.014  11.746
    2MPD2    C4   23   1.731   2.022  11.757
    2MPD2    C5   24   1.795   1.912  11.805
    2MPD2     H   25   1.419   1.910  11.759
    2MPD2    H1   26   1.787   2.098  11.704
    2MPD2    H2   27   1.785   1.718  11.898
    2MPD2    H3   28   1.902   1.908  11.793
    2MPD2     N   29   1.543   2.141  11.706
    2MPD2    H5   30   1.615   2.208  11.682
    2MPD2    N1   31   1.511   1.694  11.899
    2MPD2    H7   32   1.411   1.707  11.888
    3TCq1    O1   33   1.450   2.978  10.762
    3TCq1    C1   34   1.362   3.020  10.851
    3TCq1    O2   35   1.390   3.038  10.966
    3TCq1    C2   36   1.235   2.989  10.789
    3TCq1    C3   37   1.207   3.068  10.678
    3TCq1    C4   38   1.082   3.116  10.666
    3TCq1    C5   39   0.985   3.091  10.759
    3TCq1    C6   40   1.018   3.021  10.872
    3TCq1    C7   41   1.142   2.967  10.885
    3TCq1    C8   42   0.917   2.945  10.935
    3TCq1    O4   43   0.941   2.832  10.967
    3TCq1    C9   44   1.068   3.228  10.579
    3TCq1    O5   45   0.992   3.320  10.604
    3TCq1    O6   46   1.131   3.203  10.459
    3TCq1    H1   47   1.411   2.950  10.676
    3TCq1    H2   48   1.287   3.093  10.610
    3TCq1    H3   49   0.889   3.143  10.757
    3TCq1    H4   50   1.171   2.914  10.975
    4MPD2     C   51   0.448   2.911  11.167
    4MPD2    C1   52   0.495   3.039  11.162
    4MPD2    C2   53   0.609   3.062  11.087
    4MPD2    C3   54   0.687   2.968  11.026
    4MPD2    C4   55   0.661   2.837  11.059
    4MPD2    C5   56   0.538   2.812  11.126
    4MPD2     H   57   0.643   3.165  11.090
    4MPD2    H1   58   0.708   2.755  11.006
    4MPD2    H2   59   0.367   2.877  11.230
    4MPD2    H3   60   0.494   2.712  11.126
    4MPD2     N   61   0.802   3.021  10.959
    4MPD2    H5   62   0.815   3.121  10.971
    4MPD2    N1   63   0.441   3.139  11.241
    4MPD2    H7   64   0.495   3.225  11.247
    5TCq1    O1   65   2.026   4.434  12.569
    5TCq1    C1   66   1.992   4.387  12.448
    5TCq1    O2   67   2.073   4.347  12.363
    5TCq1    C2   68   1.866   4.449  12.413
    5TCq1    C3   69   1.762   4.450  12.502
    5TCq1    C4   70   1.661   4.530  12.464
    5TCq1    C5   71   1.652   4.601  12.349
    5TCq1    C6   72   1.755   4.585  12.265
    5TCq1    C7   73   1.863   4.506  12.290
    5TCq1    C8   74   1.750   4.629  12.122
    5TCq1    O4   75   1.816   4.568  12.038
    5TCq1    C9   76   1.555   4.540  12.566
    5TCq1    O5   77   1.578   4.524  12.686
    5TCq1    O6   78   1.437   4.567  12.508
    5TCq1    H1   79   1.958   4.483  12.619
    5TCq1    H2   80   1.768   4.408  12.602
    5TCq1    H3   81   1.575   4.672  12.321
    5TCq1    H4   82   1.945   4.500  12.220
    6MPD2     C   83   1.557   0.104  11.976
    6MPD2    C1   84   1.620   4.784  11.974
    6MPD2    C2   85   1.615   4.708  11.858
    6MPD2    C3   86   1.556   4.764  11.738
    6MPD2    C4   87   1.503   0.085  11.744
    6MPD2    C5   88   1.509   0.159  11.863
    6MPD2     H   89   1.646   4.606  11.871
    6MPD2    H1   90   1.481   0.138  11.652
    6MPD2    H2   91   1.569   0.161  12.068
    6MPD2    H3   92   1.483   0.264  11.859
    6MPD2     N   93   1.545   4.683  11.628
    6MPD2    H5   94   1.595   4.595  11.636
    6MPD2    N1   95   1.662   4.736  12.098
    6MPD2    H7   96   1.624   4.788  12.177
    7TCq1    O1   97   3.656   4.030  13.550
    7TCq1    C1   98   3.524   4.011  13.580
    7TCq1    O2   99   3.443   4.101  13.590
    7TCq1    C2  100   3.478   3.872  13.611
    7TCq1    C3  101   3.351   3.854  13.651
    7TCq1    C4  102   3.298   3.728  13.661
    7TCq1    C5  103   3.376   3.614  13.628
    7TCq1    C6  104   3.494   3.633  13.571
    7TCq1    C7  105   3.547   3.762  13.574
    7TCq1    C8  106   3.583   3.520  13.534
    7TCq1    O4  107   3.534   3.408  13.540
    7TCq1    C9  108   3.152   3.730  13.669
    7TCq1    O5  109   3.085   3.829  13.655
    7TCq1    O6  110   3.113   3.614  13.720
    7TCq1    H1  111   3.706   3.963  13.601
    7TCq1    H2  112   3.290   3.943  13.657
    7TCq1    H3  113   3.339   3.512  13.630
    7TCq1    H4  114   3.650   3.776  13.542
    8MPD2     C  115   4.059   3.344  13.562
    8MPD2    C1  116   3.946   3.283  13.605
    8MPD2    C2  117   3.830   3.358  13.580
    8MPD2    C3  118   3.832   3.485  13.517
    8MPD2    C4  119   3.956   3.543  13.494
    8MPD2    C5  120   4.062   3.467  13.525
    8MPD2     H  121   3.738   3.304  13.601
    8MPD2    H1  122   3.965   3.650  13.474
    8MPD2    H2  123   4.155   3.299  13.588
    8MPD2    H3  124   4.158   3.516  13.515
    8MPD2     N  125   3.714   3.564  13.506
    8MPD2    H5  126   3.722   3.665  13.502
    8MPD2    N1  127   3.950   3.157  13.661
    8MPD2    H7  128   4.042   3.122  13.686
    9TCq1    O1  129   1.108   3.221  11.124
    9TCq1    C1  130   1.146   3.118  11.203
    9TCq1    O2  131   1.090   3.007  11.207
    9TCq1    C2  132   1.266   3.154  11.283
    9TCq1    C3  133   1.373   3.213  11.219
    9TCq1    C4  134   1.497   3.232  11.279
    9TCq1    C5  135   1.510   3.216  11.415
    9TCq1    C6  136   1.400   3.143  11.473
    9TCq1    C7  137   1.280   3.117  11.412
    9TCq1    C8  138   1.426   3.069  11.594
    9TCq1    O4  139   1.531   3.093  11.644
    9TCq1    C9  140   1.609   3.258  11.195
    9TCq1    O5  141   1.716   3.285  11.241
    9TCq1    O6  142   1.595   3.153  11.111
    9TCq1    H1  143   1.157   3.302  11.150
    9TCq1    H2  144   1.353   3.251  11.120
    9TCq1    H3  145   1.609   3.219  11.459
    9TCq1    H4  146   1.203   3.050  11.448
   10MPD2     C  147   1.445   2.923  11.852
   10MPD2    C1  148   1.334   2.924  11.768
   10MPD2    C2  149   1.225   2.845  11.800
   10MPD2    C3  150   1.219   2.764  11.906
   10MPD2    C4  151   1.334   2.755  11.980
   10MPD2    C5  152   1.442   2.825  11.946
   10MPD2     H  153   1.139   2.838  11.735
   10MPD2    H1  154   1.339   2.685  12.062
   10MPD2    H2  155   1.538   2.978  11.846
   10MPD2    H3  156   1.526   2.803  12.012
   10MPD2     N  157   1.112   2.676  11.939
   10MPD2    H5  158   1.134   2.599  12.002
   10MPD2    N1  159   1.331   2.989  11.639
   10MPD2    H7  160   1.242   2.993  11.590
   11TCq1    O1  161   2.658   2.265  14.567
   11TCq1    C1  162   2.535   2.219  14.552
   11TCq1    O2  163   2.498   2.135  14.468
   11TCq1    C2  164   2.442   2.270  14.652
   11TCq1    C3  165   2.502   2.314  14.774
   11TCq1    C4  166   2.409   2.343  14.878
   11TCq1    C5  167   2.275   2.337  14.864
   11TCq1    C6  168   2.223   2.286  14.747
   11TCq1    C7  169   2.305   2.250  14.642
   11TCq1    C8  170   2.087   2.236  14.748
   11TCq1    O4  171   2.012   2.280  14.837
   11TCq1    C9  172   2.464   2.377  15.007
   11TCq1    O5  173   2.569   2.446  15.016
   11TCq1    O6  174   2.430   2.270  15.081
   11TCq1    H1  175   2.649   2.349  14.616
   11TCq1    H2  176   2.605   2.291  14.796
   11TCq1    H3  177   2.215   2.352  14.953
   11TCq1    H4  178   2.279   2.208  14.545
   12MPD2     C  179   1.827   2.155  14.648
   12MPD2    C1  180   1.942   2.100  14.599
   12MPD2    C2  181   1.932   2.003  14.500
   12MPD2    C3  182   1.808   1.969  14.450
   12MPD2    C4  183   1.695   2.027  14.500
   12MPD2    C5  184   1.708   2.114  14.598
   12MPD2     H  185   2.025   1.964  14.459
   12MPD2    H1  186   1.599   1.999  14.460
   12MPD2    H2  187   1.827   2.228  14.728
   12MPD2    H3  188   1.613   2.160  14.622
   12MPD2     N  189   1.786   1.869  14.350
   12MPD2    H5  190   1.694   1.860  14.307
   12MPD2    N1  191   2.070   2.138  14.643
   12MPD2    H7  192   2.149   2.095  14.595
   13TCq1    O1  193   1.801   3.051  11.691
   13TCq1    C1  194   1.899   3.035  11.598
   13TCq1    O2  195   2.019   3.030  11.619
   13TCq1    C2  196   1.853   3.027  11.459
   13TCq1    C3  197   1.943   3.059  11.364
   13TCq1    C4  198   1.909   3.029  11.237
   13TCq1    C5  199   1.794   2.966  11.201
   13TCq1    C6  200   1.705   2.935  11.300
   13TCq1    C7  201   1.733   2.966  11.430
   13TCq1    C8  202   1.581   2.867  11.276
   13TCq1    O4  203   1.512   2.839  11.378
   13TCq1    C9  204   1.986   3.102  11.135
   13TCq1    O5  205   2.109   3.127  11.146
   13TCq1    O6  206   1.888   3.166  11.062
   13TCq1    H1  207   1.710   3.060  11.655
   13TCq1    H2  208   2.043   3.087  11.395
   13TCq1    H3  209   1.776   2.928  11.101
   13TCq1    H4  210   1.684   2.919  11.515
   14MPD2     C  211   1.460   2.714  10.972
   14MPD2    C1  212   1.448   2.758  11.099
   14MPD2    C2  213   1.332   2.745  11.168
   14MPD2    C3  214   1.224   2.678  11.104
   14MPD2    C4  215   1.237   2.625  10.974
   14MPD2    C5  216   1.360   2.636  10.916
   14MPD2     H  217   1.328   2.785  11.268
   14MPD2    H1  218   1.152   2.573  10.930
   14MPD2    H2  219   1.544   2.733  10.907
   14MPD2    H3  220   1.375   2.612  10.811
   14MPD2     N  221   1.111   2.672  11.185
   14MPD2    H5  222   1.117   2.710  11.279
   14MPD2    N1  223   1.556   2.833  11.147
   14MPD2    H7  224   1.616   2.863  11.071
   15TCq1    O1  225   3.123   0.357  19.552
   15TCq1    C1  226   3.064   0.474  19.574
   15TCq1    O2  227   3.064   0.518  19.691
   15TCq1    C2  228   3.004   0.541  19.459
   15TCq1    C3  229   2.934   0.656  19.485
   15TCq1    C4  230   2.918   0.757  19.389
   15TCq1    C5  231   2.954   0.730  19.259
   15TCq1    C6  232   3.011   0.605  19.234
   15TCq1    C7  233   3.040   0.511  19.330
   15TCq1    C8  234   3.095   0.599  19.118
   15TCq1    O4  235   3.126   0.711  19.073
   15TCq1    C9  236   2.841   0.882  19.415
   15TCq1    O5  237   2.824   0.961  19.325
   15TCq1    O6  238   2.848   0.923  19.547
   15TCq1    H1  239   3.114   0.311  19.466
   15TCq1    H2  240   2.915   0.659  19.592
   15TCq1    H3  241   2.937   0.803  19.181
   15TCq1    H4  242   3.096   0.421  19.308
   16MPD2     C  243   3.154   0.344  18.864
   16MPD2    C1  244   3.190   0.451  18.942
   16MPD2    C2  245   3.310   0.524  18.915
   16MPD2    C3  246   3.374   0.489  18.800
   16MPD2    C4  247   3.343   0.376  18.731
   16MPD2    C5  248   3.238   0.294  18.768
   16MPD2     H  249   3.335   0.616  18.966
   16MPD2    H1  250   3.411   0.344  18.652
   16MPD2    H2  251   3.066   0.287  18.893
   16MPD2    H3  252   3.198   0.206  18.719
   16MPD2     N  253   3.477   0.577  18.760
   16MPD2    H5  254   3.511   0.648  18.825
   16MPD2    N1  255   3.108   0.476  19.053
   16MPD2    H7  256   3.049   0.401  19.086
   17TCq1    O1  257   1.229   1.823  10.988
   17TCq1    C1  258   1.155   1.772  11.092
   17TCq1    O2  259   1.082   1.674  11.091
   17TCq1    C2  260   1.238   1.811  11.208
   17TCq1    C3  261   1.285   1.721  11.299
   17TCq1    C4  262   1.328   1.774  11.418
   17TCq1    C5  263   1.350   1.914  11.440
   17TCq1    C6  264   1.282   1.994  11.351
   17TCq1    C7  265   1.229   1.941  11.235
   17TCq1    C8  266   1.328   2.134  11.324
   17TCq1    O4  267   1.237   2.219  11.317
   17TCq1    C9  268   1.397   1.683  11.511
   17TCq1    O5  269   1.363   1.666  11.625
   17TCq1    O6  270   1.448   1.592  11.427
   17TCq1    H1  271   1.313   1.867  11.014
   17TCq1    H2  272   1.273   1.616  11.275
   17TCq1    H3  273   1.392   1.959  11.529
   17TCq1    H4  274   1.181   2.010  11.167
   18MPD2     C  275   1.474   2.391  11.313
   18MPD2    C1  276   1.530   2.273  11.339
   18MPD2    C2  277   1.665   2.263  11.373
   18MPD2    C3  278   1.746   2.372  11.375
   18MPD2    C4  279   1.686   2.495  11.355
   18MPD2    C5  280   1.557   2.501  11.320
   18MPD2     H  281   1.707   2.163  11.380
   18MPD2    H1  282   1.733   2.592  11.359
   18MPD2    H2  283   1.374   2.402  11.273
   18MPD2    H3  284   1.514   2.599  11.302
   18MPD2     N  285   1.886   2.365  11.391
   18MPD2    H5  286   1.938   2.451  11.378
   18MPD2    N1  287   1.454   2.158  11.346
   18MPD2    H7  288   1.508   2.074  11.364
   19TMC2    C1  289   3.092   2.100  14.222
   19TMC2    C2  290   3.021   2.216  14.197
   19TMC2    C3  291   2.886   2.223  14.220
   19TMC2    C4  292   3.025   1.989  14.258
   19TMC2    C5  293   2.884   1.996  14.280
   19TMC2    C6  294   2.816   2.116  14.263
   19TMC2     C  295   3.240   2.110  14.201
   19TMC2     O  296   3.282   2.198  14.132
   19TMC2     H  297   3.079   2.306  14.181
   19TMC2    H1  298   3.082   1.897  14.265
   19TMC2    H2  299   2.712   2.135  14.287
   19TMC2    C7  300   2.806   1.892  14.343
   19TMC2    C8  301   2.813   2.344  14.235
   19TMC2    O1  302   2.879   1.805  14.383
   19TMC2    O2  303   2.697   2.351  14.192
   19TMC2    O5  304   2.899   2.442  14.284
   19TMC2    H5  305   2.968   2.418  14.350
   20MPD2     C  306   3.537   2.085  14.220
   20MPD2    C1  307   3.450   1.999  14.283
   20MPD2    C2  308   3.501   1.905  14.367
   20MPD2    C3  309   3.640   1.901  14.387
   20MPD2    C4  310   3.721   1.991  14.331
   20MPD2    C5  311   3.672   2.084  14.241
   20MPD2     H  312   3.429   1.843  14.418
   20MPD2    H1  313   3.828   1.980  14.343
   20MPD2    H2  314   3.514   2.168  14.155
   20MPD2    H3  315   3.740   2.148  14.187
   20MPD2     N  316   3.698   1.805  14.472
   20MPD2    H5  317   3.796   1.813  14.497
   20MPD2    N1  318   3.314   2.015  14.278
   20MPD2    H7  319   3.257   1.945  14.325
   21MPD2     C  320   0.419   2.729  14.621
   21MPD2    C1  321   0.499   2.626  14.590
   21MPD2    C2  322   0.463   2.559  14.477
   21MPD2    C3  323   0.349   2.582  14.406
   21MPD2    C4  324   0.264   2.684  14.442
   21MPD2    C5  325   0.301   2.755  14.561
   21MPD2     H  326   0.518   2.475  14.437
   21MPD2    H1  327   0.176   2.714  14.387
   21MPD2    H2  328   0.439   2.792  14.708
   21MPD2    H3  329   0.246   2.837  14.604
   21MPD2     N  330   0.305   2.494  14.300
   21MPD2    H5  331   0.243   2.544  14.237
   21MPD2    N1  332   0.608   2.576  14.668
   21MPD2    H7  333   0.649   2.491  14.630
   22TCq2    C1  334   0.359   2.377  14.269
   22TCq2    O2  335   0.368   2.332  14.156
   22TCq2    C2  336   0.377   2.286  14.373
   22TCq2    C3  337   0.483   2.200  14.354
   22TCq2    C4  338   0.537   2.140  14.462
   22TCq2    C5  339   0.465   2.144  14.585
   22TCq2    C6  340   0.346   2.218  14.593
   22TCq2    C7  341   0.303   2.286  14.485
   22TCq2    C8  342   0.329   2.281  14.725
   22TCq2    O4  343   0.408   2.245  14.813
   22TCq2    C9  344   0.619   2.022  14.446
   22TCq2    O5  345   0.672   1.960  14.539
   22TCq2    O6  346   0.571   1.957  14.337
   22TCq2    H2  347   0.550   2.204  14.269
   22TCq2    H3  348   0.508   2.102  14.675
   22TCq2    H4  349   0.224   2.359  14.495
   23MPD2     C  350   2.087   3.403  14.675
   23MPD2    C1  351   1.970   3.401  14.753
   23MPD2    C2  352   1.856   3.464  14.699
   23MPD2    C3  353   1.868   3.518  14.573
   23MPD2    C4  354   1.982   3.512  14.501
   23MPD2    C5  355   2.096   3.454  14.548
   23MPD2     H  356   1.761   3.464  14.750
   23MPD2    H1  357   1.985   3.558  14.402
   23MPD2    H2  358   2.173   3.351  14.716
   23MPD2    H3  359   2.182   3.446  14.482
   23MPD2     N  360   1.754   3.580  14.506
   23MPD2    H5  361   1.780   3.637  14.427
   23MPD2    N1  362   1.955   3.336  14.874
   23MPD2    H7  363   1.880   3.370  14.934
   24TCq2    C1  364   1.621   3.555  14.532
   24TCq2    O2  365   1.564   3.463  14.586
   24TCq2    C2  366   1.540   3.643  14.453
   24TCq2    C3  367   1.568   3.781  14.454
   24TCq2    C4  368   1.462   3.865  14.442
   24TCq2    C5  369   1.334   3.818  14.427
   24TCq2    C6  370   1.317   3.685  14.414
   24TCq2    C7  371   1.415   3.598  14.445
   24TCq2    C8  372   1.181   3.628  14.420
   24TCq2    O4  373   1.182   3.517  14.468
   24TCq2    C9  374   1.486   4.006  14.443
   24TCq2    O5  375   1.592   4.064  14.411
   24TCq2    O6  376   1.443   4.021  14.577
   24TCq2    H2  377   1.662   3.832  14.473
   24TCq2    H3  378   1.250   3.881  14.400
   24TCq2    H4  379   1.399   3.492  14.430
   25TMC2    C1  380   0.975   0.945  12.202
   25TMC2    C2  381   1.044   0.981  12.311
   25TMC2    C3  382   1.017   1.104  12.370
   25TMC2    C4  383   0.878   1.022  12.146
   25TMC2    C5  384   0.851   1.132  12.218
   25TMC2    C6  385   0.917   1.177  12.325
   25TMC2     C  386   1.023   0.834  12.122
   25TMC2     O  387   1.135   0.794  12.150
   25TMC2     H  388   1.130   0.917  12.329
   25TMC2    H1  389   0.826   1.004  12.053
   25TMC2    H2  390   0.882   1.273  12.363
   25TMC2    C7  391   0.799   1.240  12.134
   25TMC2    C8  392   1.068   1.136  12.496
   25TMC2    O1  393   0.861   1.346  12.148
   25TMC2    O2  394   1.099   1.248  12.529
   25TMC2    O5  395   1.108   1.021  12.550
   25TMC2    H5  396   1.054   0.950  12.509
   26MPD2     C  397   1.013   0.457  11.804
   26MPD2    C1  398   0.884   0.463  11.848
   26MPD2    C2  399   0.852   0.567  11.939
   26MPD2    C3  400   0.949   0.668  11.972
   26MPD2    C4  401   1.070   0.656  11.922
   26MPD2    C5  402   1.104   0.555  11.842
   26MPD2     H  403   0.750   0.579  11.973
   26MPD2    H1  404   1.146   0.732  11.938
   26MPD2    H2  405   1.043   0.379  11.734
   26MPD2    H3  406   1.207   0.551  11.808
   26MPD2     N  407   0.919   0.775  12.058
   26MPD2    H5  408   0.824   0.803  12.082
   26MPD2    N1  409   0.791   0.367  11.803
   26MPD2    H7  410   0.819   0.301  11.731
   27TMC2    C1  411   4.549   3.180  12.480
   27TMC2    C2  412   4.475   3.287  12.444
   27TMC2    C3  413   4.533   3.374  12.352
   27TMC2    C4  414   4.677   3.163  12.426
   27TMC2    C5  415   4.735   3.255  12.340
   27TMC2    C6  416   4.656   3.359  12.304
   27TMC2     C  417   4.513   3.101  12.594
   27TMC2     O  418   4.572   2.998  12.625
   27TMC2     H  419   4.371   3.312  12.463
   27TMC2    H1  420   4.742   3.096  12.481
   27TMC2    H2  421   4.692   3.431  12.232
   27TMC2    C7  422   0.063   3.291  12.378
   27TMC2    C8  423   4.461   3.491  12.311
   27TMC2    O1  424   0.135   3.209  12.430
   27TMC2    O2  425   4.490   3.569  12.216
   27TMC2    O5  426   4.414   3.540  12.431
   27TMC2    H5  427   4.443   3.488  12.509
   28MPD2     C  428   4.123   2.933  12.878
   28MPD2    C1  429   4.108   3.071  12.866
   28MPD2    C2  430   4.200   3.147  12.789
   28MPD2    C3  431   4.311   3.084  12.735
   28MPD2    C4  432   4.332   2.954  12.769
   28MPD2    C5  433   4.238   2.881  12.834
   28MPD2     H  434   4.171   3.250  12.772
   28MPD2    H1  435   4.424   2.904  12.741
   28MPD2    H2  436   4.051   2.872  12.931
   28MPD2    H3  437   4.263   2.780  12.863
   28MPD2     N  438   4.394   3.153  12.646
   28MPD2    H5  439   4.370   3.249  12.622
   28MPD2    N1  440   3.982   3.115  12.909
   28MPD2    H7  441   3.925   3.049  12.962
   29MPD2     C  442   3.603   0.417  14.132
   29MPD2    C1  443   3.703   0.388  14.221
   29MPD2    C2  444   3.727   0.475  14.326
   29MPD2    C3  445   3.662   0.594  14.343
   29MPD2    C4  446   3.564   0.624  14.254
   29MPD2    C5  447   3.528   0.530  14.159
   29MPD2     H  448   3.816   0.451  14.385
   29MPD2    H1  449   3.505   0.715  14.251
   29MPD2    H2  450   3.563   0.349  14.057
   29MPD2    H3  451   3.449   0.566  14.093
   29MPD2     N  452   3.692   0.693  14.434
   29MPD2    H5  453   3.657   0.787  14.413
   29MPD2    N1  454   3.779   0.268  14.216
   29MPD2    H7  455   3.855   0.273  14.284
   30TCq2    C1  456   3.756   0.679  14.552
   30TCq2    O2  457   3.790   0.579  14.618
   30TCq2    C2  458   3.765   0.799  14.625
   30TCq2    C3  459   3.757   0.798  14.763
   30TCq2    C4  460   3.805   0.909  14.824
   30TCq2    C5  461   3.857   1.015  14.761
   30TCq2    C6  462   3.861   1.013  14.628
   30TCq2    C7  463   3.810   0.907  14.553
   30TCq2    C8  464   3.928   1.117  14.556
   30TCq2    O4  465   3.896   1.135  14.439
   30TCq2    C9  466   3.817   0.910  14.963
   30TCq2    O5  467   3.823   0.804  15.024
   30TCq2    O6  468   3.789   1.032  15.022
   30TCq2    H2  469   3.709   0.722  14.824
   30TCq2    H3  470   3.894   1.101  14.816
   30TCq2    H4  471   3.819   0.906  14.445
   31MPD2     C  472   1.894   4.325  15.252
   31MPD2    C1  473   1.768   4.360  15.232
   31MPD2    C2  474   1.658   4.304  15.307
   31MPD2    C3  475   1.694   4.215  15.413
   31MPD2    C4  476   1.825   4.176  15.425
   31MPD2    C5  477   1.918   4.226  15.342
   31MPD2     H  478   1.556   4.332  15.285
   31MPD2    H1  479   1.860   4.106  15.499
   31MPD2    H2  480   1.980   4.367  15.201
   31MPD2    H3  481   2.023   4.200  15.354
   31MPD2     N  482   1.610   4.179  15.528
   31MPD2    H5  483   1.649   4.119  15.600
   31MPD2    N1  484   1.760   4.447  15.120
   31MPD2    H7  485   1.837   4.481  15.064
   32TCq2    C1  486   1.484   4.228  15.547
   32TCq2    O2  487   1.401   4.263  15.460
   32TCq2    C2  488   1.445   4.229  15.685
   32TCq2    C3  489   1.315   4.250  15.709
   32TCq2    C4  490   1.276   4.289  15.832
   32TCq2    C5  491   1.361   4.292  15.942
   32TCq2    C6  492   1.489   4.282  15.910
   32TCq2    C7  493   1.534   4.244  15.785
   32TCq2    C8  494   1.586   4.278  16.015
   32TCq2    O4  495   1.687   4.212  15.998
   32TCq2    C9  496   1.138   4.285  15.864
   32TCq2    O5  497   1.100   4.220  15.961
   32TCq2    O6  498   1.068   4.387  15.802
   32TCq2    H2  499   1.241   4.239  15.631
   32TCq2    H3  500   1.335   4.326  16.042
   32TCq2    H4  501   1.640   4.246  15.765
   33MPD2     C  502   2.461   2.379  10.807
   33MPD2    C1  503   2.335   2.371  10.856
   33MPD2    C2  504   2.223   2.376  10.772
   33MPD2    C3  505   2.234   2.377  10.637
   33MPD2    C4  506   2.364   2.389  10.580
   33MPD2    C5  507   2.473   2.394  10.672
   33MPD2     H  508   2.123   2.379  10.813
   33MPD2    H1  509   2.379   2.382  10.473
   33MPD2    H2  510   2.549   2.372  10.869
   33MPD2    H3  511   2.573   2.397  10.630
   33MPD2     N  512   2.125   2.361  10.549
   33MPD2    H5  513   2.153   2.356  10.452
   33MPD2    N1  514   2.321   2.343  10.995
   33MPD2    H7  515   2.404   2.332  11.052
   34TCq2    C1  516   1.995   2.319  10.580
   34TCq2    O2  517   1.950   2.289  10.690
   34TCq2    C2  518   1.909   2.333  10.459
   34TCq2    C3  519   1.790   2.265  10.463
   34TCq2    C4  520   1.672   2.319  10.411
   34TCq2    C5  521   1.674   2.452  10.361
   34TCq2    C6  522   1.800   2.521  10.373
   34TCq2    C7  523   1.912   2.461  10.409
   34TCq2    C8  524   1.802   2.663  10.330
   34TCq2    O4  525   1.891   2.728  10.376
   34TCq2    C9  526   1.579   2.220  10.363
   34TCq2    O5  527   1.502   2.247  10.274
   34TCq2    O6  528   1.560   2.119  10.457
   34TCq2    H2  529   1.786   2.162  10.498
   34TCq2    H3  530   1.582   2.500  10.332
   34TCq2    H4  531   2.002   2.520  10.392
   35MPD2     C  532   3.541   3.804  11.924
   35MPD2    C1  533   3.493   3.709  12.018
   35MPD2    C2  534   3.357   3.683  12.027
   35MPD2    C3  535   3.271   3.758  11.953
   35MPD2    C4  536   3.321   3.857  11.865
   35MPD2    C5  537   3.461   3.869  11.841
   35MPD2     H  538   3.319   3.596  12.078
   35MPD2    H1  539   3.253   3.920  11.809
   35MPD2    H2  540   3.648   3.821  11.916
   35MPD2    H3  541   3.496   3.930  11.759
   35MPD2     N  542   3.132   3.722  11.954
   35MPD2    H5  543   3.106   3.644  12.013
   35MPD2    N1  544   3.590   3.627  12.093
   35MPD2    H7  545   3.686   3.623  12.061
   36TCq2    C1  546   3.029   3.783  11.889
   36TCq2    O2  547   3.033   3.871  11.808
   36TCq2    C2  548   2.897   3.752  11.941
   36TCq2    C3  549   2.795   3.843  11.909
   36TCq2    C4  550   2.661   3.801  11.931
   36TCq2    C5  551   2.637   3.690  12.010
   36TCq2    C6  552   2.744   3.614  12.051
   36TCq2    C7  553   2.872   3.639  12.013
   36TCq2    C8  554   2.722   3.473  12.065
   36TCq2    O4  555   2.614   3.428  12.031
   36TCq2    C9  556   2.562   3.886  11.868
   36TCq2    O5  557   2.598   3.982  11.805
   36TCq2    O6  558   2.462   3.802  11.840
   36TCq2    H2  559   2.814   3.938  11.860
   36TCq2    H3  560   2.537   3.670  12.047
   36TCq2    H4  561   2.947   3.569  12.047
   37TMC2    C1  562   0.879   3.188  12.422
   37TMC2    C2  563   0.777   3.106  12.380
   37TMC2    C3  564   0.769   3.089  12.248
   37TMC2    C4  565   0.955   3.272  12.336
   37TMC2    C5  566   0.923   3.265  12.200
   37TMC2    C6  567   0.837   3.167  12.152
   37TMC2     C  568   0.865   3.227  12.554
   37TMC2     O  569   0.755   3.222  12.599
   37TMC2     H  570   0.717   3.041  12.442
   37TMC2    H1  571   1.015   3.346  12.388
   37TMC2    H2  572   0.789   3.179  12.056
   37TMC2    C7  573   0.985   3.353  12.103
   37TMC2    C8  574   0.701   2.971  12.205
   37TMC2    O1  575   1.036   3.459  12.149
   37TMC2    O2  576   0.616   2.914  12.270
   37TMC2    O5  577   0.741   2.931  12.088
   37TMC2    H5  578   0.817   2.986  12.060
   38MPD2     C  579   0.986   3.391  13.022
   38MPD2    C1  580   1.108   3.387  12.949
   38MPD2    C2  581   1.098   3.346  12.815
   38MPD2    C3  582   0.980   3.301  12.764
   38MPD2    C4  583   0.873   3.306  12.838
   38MPD2    C5  584   0.871   3.351  12.967
   38MPD2     H  585   1.182   3.338  12.747
   38MPD2    H1  586   0.776   3.261  12.817
   38MPD2    H2  587   0.995   3.401  13.129
   38MPD2    H3  588   0.776   3.368  13.016
   38MPD2     N  589   0.977   3.252  12.626
   38MPD2    H5  590   1.061   3.251  12.570
   38MPD2    N1  591   1.231   3.399  13.015
   38MPD2    H7  592   1.316   3.361  12.974
   39MPD2     C  593   3.567   0.226  19.026
   39MPD2    C1  594   3.500   0.290  19.128
   39MPD2    C2  595   3.384   0.225  19.185
   39MPD2    C3  596   3.332   0.108  19.132
   39MPD2    C4  597   3.411   0.049  19.027
   39MPD2    C5  598   3.517   0.116  18.967
   39MPD2     H  599   3.327   0.282  19.257
   39MPD2    H1  600   3.369   4.769  18.974
   39MPD2    H2  601   3.652   0.266  18.971
   39MPD2    H3  602   3.578   0.072  18.889
   39MPD2     N  603   3.211   0.041  19.175
   39MPD2    H5  604   3.195   4.751  19.143
   39MPD2    N1  605   3.559   0.413  19.176
   39MPD2    H7  606   3.651   0.436  19.140
   40TCq2    C1  607   3.509   0.500  19.265
   40TCq2    O2  608   3.391   0.512  19.300
   40TCq2    C2  609   3.594   0.623  19.246
   40TCq2    C3  610   3.523   0.742  19.230
   40TCq2    C4  611   3.591   0.861  19.213
   40TCq2    C5  612   3.729   0.854  19.199
   40TCq2    C6  613   3.799   0.734  19.210
   40TCq2    C7  614   3.732   0.617  19.246
   40TCq2    C8  615   3.923   0.746  19.299
   40TCq2    O4  616   3.925   0.669  19.396
   40TCq2    C9  617   3.517   0.986  19.200
   40TCq2    O5  618   3.410   0.998  19.138
   40TCq2    O6  619   3.603   1.085  19.242
   40TCq2    H2  620   3.415   0.745  19.231
   40TCq2    H3  621   3.773   0.942  19.154
   40TCq2    H4  622   3.787   0.526  19.269
   41TMC2    C1  623   2.595   3.676  13.957
   41TMC2    C2  624   2.505   3.751  14.025
   41TMC2    C3  625   2.463   3.872  13.974
   41TMC2    C4  626   2.654   3.711  13.838
   41TMC2    C5  627   2.607   3.827  13.792
   41TMC2    C6  628   2.517   3.909  13.853
   41TMC2     C  629   2.641   3.553  14.020
   41TMC2     O  630   2.710   3.483  13.951
   41TMC2     H  631   2.456   3.721  14.117
   41TMC2    H1  632   2.733   3.651  13.795
   41TMC2    H2  633   2.487   4.004  13.810
   41TMC2    C7  634   2.682   3.897  13.695
   41TMC2    C8  635   2.323   3.899  14.002
   41TMC2    O1  636   2.730   4.006  13.727
   41TMC2    O2  637   2.233   3.817  14.015
   41TMC2    O5  638   2.309   4.037  14.019
   41TMC2    H5  639   2.396   4.082  14.006
   42MPD2     C  640   2.690   3.319  14.188
   42MPD2    C1  641   2.624   3.436  14.234
   42MPD2    C2  642   2.586   3.433  14.368
   42MPD2    C3  643   2.601   3.319  14.450
   42MPD2    C4  644   2.672   3.206  14.399
   42MPD2    C5  645   2.718   3.212  14.273
   42MPD2     H  646   2.538   3.519  14.413
   42MPD2    H1  647   2.680   3.111  14.451
   42MPD2    H2  648   2.744   3.317  14.094
   42MPD2    H3  649   2.780   3.135  14.229
   42MPD2     N  650   2.560   3.307  14.588
   42MPD2    H5  651   2.585   3.219  14.631
   42MPD2    N1  652   2.601   3.549  14.151
   42MPD2    H7  653   2.555   3.630  14.192
   43MPD2     C  654   3.997   1.569  18.681
   43MPD2    C1  655   4.072   1.672  18.729
   43MPD2    C2  656   4.027   1.735  18.845
   43MPD2    C3  657   3.906   1.704  18.906
   43MPD2    C4  658   3.828   1.606  18.851
   43MPD2    C5  659   3.873   1.537  18.739
   43MPD2     H  660   4.089   1.813  18.889
   43MPD2    H1  661   3.727   1.586  18.885
   43MPD2    H2  662   4.017   1.507  18.595
   43MPD2    H3  663   3.827   1.457  18.683
   43MPD2     N  664   3.860   1.751  19.028
   43MPD2    H5  665   3.761   1.737  19.050
   43MPD2    N1  666   4.194   1.717  18.669
   43MPD2    H7  667   4.242   1.798  18.707
   44TCq2    C1  668   4.004   2.124  19.482
   44TCq2    O2  669   4.122   2.129  19.446
   44TCq2    C2  670   3.908   2.046  19.401
   44TCq2    C3  671   3.780   2.086  19.398
   44TCq2    C4  672   3.705   2.027  19.304
   44TCq2    C5  673   3.744   1.918  19.221
   44TCq2    C6  674   3.876   1.877  19.230
   44TCq2    C7  675   3.953   1.945  19.321
   44TCq2    C8  676   3.946   1.797  19.125
   44TCq2    O4  677   4.071   1.790  19.123
   44TCq2    C9  678   3.577   2.080  19.265
   44TCq2    O5  679   3.542   2.062  19.153
   44TCq2    O6  680   3.505   2.115  19.368
   44TCq2    H2  681   3.745   2.174  19.450
   44TCq2    H3  682   3.675   1.870  19.153
   44TCq2    H4  683   4.058   1.916  19.322
   45TMC2    C1  684   0.247   3.669   9.852
   45TMC2    C2  685   0.351   3.668   9.763
   45TMC2    C3  686   0.454   3.763   9.771
   45TMC2    C4  687   0.243   3.759   9.958
   45TMC2    C5  688   0.353   3.841   9.968
   45TMC2    C6  689   0.458   3.846   9.874
   45TMC2     C  690   0.133   3.580   9.822
   45TMC2     O  691   0.162   3.493   9.746
   45TMC2     H  692   0.353   3.599   9.679
   45TMC2    H1  693   0.156   3.760  10.023
   45TMC2    H2  694   0.534   3.922   9.892
   45TMC2    C7  695   0.339   3.968  10.036
   45TMC2    C8  696   0.553   3.767   9.667
   45TMC2    O1  697   0.266   3.967  10.136
   45TMC2    O2  698   0.630   3.860   9.650
   45TMC2    O5  699   0.571   3.638   9.622
   45TMC2    H5  700   0.529   3.570   9.679
   46MPD2     C  701   4.684   3.442   9.870
   46MPD2    C1  702   4.695   3.579   9.842
   46MPD2    C2  703   4.583   3.647   9.797
   46MPD2    C3  704   4.464   3.587   9.768
   46MPD2    C4  705   4.454   3.454   9.788
   46MPD2    C5  706   4.555   3.391   9.847
   46MPD2     H  707   4.601   3.754   9.792
   46MPD2    H1  708   4.368   3.393   9.764
   46MPD2    H2  709   4.773   3.390   9.902
   46MPD2    H3  710   4.547   3.284   9.862
   46MPD2     N  711   4.352   3.677   9.736
   46MPD2    H5  712   4.379   3.775   9.737
   46MPD2    N1  713   0.013   3.644   9.854
   46MPD2    H7  714   0.017   3.744   9.874
   47TMC2    C1  715   1.658   0.075   9.218
   47TMC2    C2  716   1.716   0.010   9.116
   47TMC2    C3  717   1.647   4.727   9.045
   47TMC2    C4  718   1.525   0.068   9.238
   47TMC2    C5  719   1.453   4.781   9.171
   47TMC2    C6  720   1.514   4.703   9.074
   47TMC2     C  721   1.738   0.119   9.330
   47TMC2     O  722   1.691   0.198   9.415
   47TMC2     H  723   1.818   0.027   9.082
   47TMC2    H1  724   1.480   0.120   9.322
   47TMC2    H2  725   1.467   4.617   9.028
   47TMC2    C7  726   1.312   4.781   9.184
   47TMC2    C8  727   1.721   4.632   8.968
   47TMC2    O1  728   1.255   4.680   9.142
   47TMC2    O2  729   1.843   4.618   8.981
   47TMC2    O5  730   1.660   4.634   8.849
   47TMC2    H5  731   1.567   4.664   8.857
   48MPD2     C  732   1.984   0.168   9.495
   48MPD2    C1  733   1.953   0.051   9.436
   48MPD2    C2  734   2.037   4.748   9.469
   48MPD2    C3  735   2.145   4.751   9.552
   48MPD2    C4  736   2.171   0.067   9.613
   48MPD2    C5  737   2.088   0.174   9.585
   48MPD2     H  738   2.002   4.651   9.436
   48MPD2    H1  739   2.254   0.081   9.681
   48MPD2    H2  740   1.925   0.258   9.481
   48MPD2    H3  741   2.105   0.275   9.623
   48MPD2     N  742   2.226   4.636   9.570
   48MPD2    H5  743   2.221   4.565   9.498
   48MPD2    N1  744   1.846   0.034   9.349
   48MPD2    H7  745   1.854   4.761   9.285
   49MPD2     C  746   0.913   2.110  11.121
   49MPD2    C1  747   0.876   1.994  11.051
   49MPD2    C2  748   0.829   1.885  11.133
   49MPD2    C3  749   0.811   1.903  11.268
   49MPD2    C4  750   0.845   2.017  11.331
   49MPD2    C5  751   0.902   2.118  11.260
   49MPD2     H  752   0.807   1.789  11.089
   49MPD2    H1  753   0.827   2.022  11.438
   49MPD2    H2  754   0.948   2.198  11.068
   49MPD2    H3  755   0.933   2.206  11.314
   49MPD2     N  756   0.764   1.806  11.363
   49MPD2    H5  757   0.768   1.832  11.461
   49MPD2    N1  758   0.873   1.965  10.909
   49MPD2    H7  759   0.836   1.876  10.877
   50TCq2    C1  760   0.933   2.051  10.817
   50TCq2    O2  761   0.993   2.156  10.836
   50TCq2    C2  762   0.904   2.017  10.680
   50TCq2    C3  763   0.982   2.081  10.582
   50TCq2    C4  764   0.950   2.061  10.451
   50TCq2    C5  765   0.839   1.986  10.414
   50TCq2    C6  766   0.764   1.928  10.520
   50TCq2    C7  767   0.795   1.936  10.653
   50TCq2    C8  768   0.638   1.856  10.484
   50TCq2    O4  769   0.599   1.874  10.369
   50TCq2    C9  770   1.014   2.138  10.349
   50TCq2    O5  771   0.947   2.197  10.267
   50TCq2    O6  772   1.125   2.192  10.405
   50TCq2    H2  773   1.063   2.148  10.608
   50TCq2    H3  774   0.810   1.970  10.311
   50TCq2    H4  775   0.723   1.911  10.730
   51MPD2     C  776   1.113   0.037  19.284
   51MPD2    C1  777   1.150   0.075  19.410
   51MPD2    C2  778   1.110   0.198  19.451
   51MPD2    C3  779   1.029   0.280  19.368
   51MPD2    C4  780   0.993   0.240  19.239
   51MPD2    C5  781   1.042   0.121  19.195
   51MPD2     H  782   1.147   0.230  19.547
   51MPD2    H1  783   0.949   0.307  19.167
   51MPD2    H2  784   1.136   4.745  19.242
   51MPD2    H3  785   1.022   0.095  19.092
   51MPD2     N  786   0.987   0.412  19.410
   51MPD2    H5  787   0.940   0.466  19.338
   51MPD2    N1  788   1.228   4.804  19.499
   51MPD2    H7  789   1.220   0.040  19.592
   52TCq2    C1  790   1.018   0.472  19.522
   52TCq2    O2  791   1.101   0.437  19.605
   52TCq2    C2  792   0.955   0.606  19.527
   52TCq2    C3  793   1.019   0.700  19.603
   52TCq2    C4  794   0.974   0.830  19.595
   52TCq2    C5  795   0.875   0.874  19.506
   52TCq2    C6  796   0.821   0.774  19.430
   52TCq2    C7  797   0.854   0.644  19.440
   52TCq2    C8  798   0.735   0.828  19.319
   52TCq2    O4  799   0.672   0.932  19.347
   52TCq2    C9  800   1.014   0.925  19.694
   52TCq2    O5  801   0.981   1.043  19.675
   52TCq2    O6  802   1.008   0.866  19.809
   52TCq2    H2  803   1.114   0.674  19.648
   52TCq2    H3  804   0.848   0.977  19.484
   52TCq2    H4  805   0.809   0.572  19.373
   53TMC2    C1  806   1.267   3.892  11.685
   53TMC2    C2  807   1.245   3.995  11.598
   53TMC2    C3  808   1.291   4.113  11.640
   53TMC2    C4  809   1.345   3.906  11.802
   53TMC2    C5  810   1.394   4.026  11.839
   53TMC2    C6  811   1.366   4.132  11.756
   53TMC2     C  812   1.228   3.758  11.647
   53TMC2     O  813   1.211   3.730  11.529
   53TMC2     H  814   1.175   3.984  11.516
   53TMC2    H1  815   1.355   3.815  11.860
   53TMC2    H2  816   1.397   4.232  11.782
   53TMC2    C7  817   1.353   4.044  11.979
   53TMC2    C8  818   1.288   4.212  11.543
   53TMC2    O1  819   1.236   4.043  12.003
   53TMC2    O2  820   1.329   4.328  11.561
   53TMC2    O5  821   1.307   4.156  11.420
   53TMC2    H5  822   1.304   4.058  11.427
   54MPD2     C  823   1.117   3.492  11.615
   54MPD2    C1  824   1.138   3.554  11.739
   54MPD2    C2  825   1.099   3.496  11.859
   54MPD2    C3  826   1.038   3.372  11.860
   54MPD2    C4  827   1.027   3.304  11.743
   54MPD2    C5  828   1.072   3.362  11.626
   54MPD2     H  829   1.113   3.554  11.949
   54MPD2    H1  830   0.987   3.203  11.739
   54MPD2    H2  831   1.140   3.538  11.519
   54MPD2    H3  832   1.046   3.313  11.533
   54MPD2     N  833   0.981   3.306  11.972
   54MPD2    H5  834   0.958   3.208  11.962
   54MPD2    N1  835   1.201   3.678  11.758
   54MPD2    H7  836   1.193   3.718  11.850
   55MPD2     C  837   2.280   1.804  18.086
   55MPD2    C1  838   2.252   1.688  18.161
   55MPD2    C2  839   2.161   1.704  18.267
   55MPD2    C3  840   2.107   1.824  18.304
   55MPD2    C4  841   2.143   1.937  18.230
   55MPD2    C5  842   2.230   1.925  18.123
   55MPD2     H  843   2.119   1.611  18.305
   55MPD2    H1  844   2.113   2.040  18.243
   55MPD2    H2  845   2.358   1.795  18.011
   55MPD2    H3  846   2.249   2.015  18.065
   55MPD2     N  847   2.013   1.829  18.409
   55MPD2    H5  848   1.985   1.746  18.460
   55MPD2    N1  849   2.312   1.565  18.133
   55MPD2    H7  850   2.376   1.553  18.055
   56TCq2    C1  851   2.305   1.449  18.208
   56TCq2    O2  852   2.268   1.440  18.322
   56TCq2    C2  853   2.348   1.324  18.142
   56TCq2    C3  854   2.330   1.308  18.004
   56TCq2    C4  855   2.307   1.177  17.961
   56TCq2    C5  856   2.289   1.071  18.051
   56TCq2    C6  857   2.301   1.096  18.190
   56TCq2    C7  858   2.333   1.222  18.231
   56TCq2    C8  859   2.190   1.030  18.257
   56TCq2    O4  860   2.109   0.963  18.190
   56TCq2    C9  861   2.294   1.135  17.822
   56TCq2    O5  862   2.364   1.049  17.777
   56TCq2    O6  863   2.270   1.251  17.762
   56TCq2    H2  864   2.356   1.395  17.945
   56TCq2    H3  865   2.269   0.978  18.001
   56TCq2    H4  866   2.364   1.237  18.333
   57TMC2    C1  867   1.463   2.356  13.913
   57TMC2    C2  868   1.507   2.249  13.993
   57TMC2    C3  869   1.640   2.219  13.964
   57TMC2    C4  870   1.533   2.420  13.819
   57TMC2    C5  871   1.659   2.375  13.798
   57TMC2    C6  872   1.715   2.271  13.867
   57TMC2     C  873   1.318   2.388  13.938
   57TMC2     O  874   1.277   2.502  13.924
   57TMC2     H  875   1.449   2.190  14.062
   57TMC2    H1  876   1.489   2.487  13.746
   57TMC2    H2  877   1.810   2.221  13.853
   57TMC2    C7  878   1.737   2.408  13.682
   57TMC2    C8  879   1.710   2.120  14.044
   57TMC2    O1  880   1.730   2.523  13.640
   57TMC2    O2  881   1.770   2.032  13.989
   57TMC2    O5  882   1.649   2.108  14.165
   57TMC2    H5  883   1.615   2.197  14.190
   58MPD2     C  884   0.896   2.279  14.205
   58MPD2    C1  885   0.961   2.405  14.191
   58MPD2    C2  886   1.079   2.410  14.116
   58MPD2    C3  887   1.132   2.287  14.060
   58MPD2    C4  888   1.066   2.169  14.091
   58MPD2    C5  889   0.949   2.164  14.162
   58MPD2     H  890   1.110   2.510  14.088
   58MPD2    H1  891   1.103   2.072  14.059
   58MPD2    H2  892   0.815   2.257  14.274
   58MPD2    H3  893   0.896   2.071  14.182
   58MPD2     N  894   1.256   2.286  13.990
   58MPD2    H5  895   1.291   2.195  13.964
   58MPD2    N1  896   0.890   2.522  14.226
   58MPD2    H7  897   0.943   2.608  14.216
   59MPD2     C  898   3.905   3.002  13.220
   59MPD2    C1  899   3.947   2.869  13.221
   59MPD2    C2  900   4.041   2.822  13.309
   59MPD2    C3  901   4.108   2.913  13.380
   59MPD2    C4  902   4.077   3.052  13.375
   59MPD2    C5  903   3.974   3.100  13.294
   59MPD2     H  904   4.060   2.716  13.322
   59MPD2    H1  905   4.131   3.121  13.437
   59MPD2    H2  906   3.809   3.032  13.180
   59MPD2    H3  907   3.935   3.201  13.298
   59MPD2     N  908   4.216   2.875  13.467
   59MPD2    H5  909   4.260   2.949  13.521
   59MPD2    N1  910   3.873   2.772  13.140
   59MPD2    H7  911   3.893   2.674  13.161
   60TCq2    C1  912   3.798   2.802  13.031
   60TCq2    O2  913   3.814   2.899  12.965
   60TCq2    C2  914   3.720   2.693  12.983
   60TCq2    C3  915   3.704   2.568  13.049
   60TCq2    C4  916   3.626   2.471  12.978
   60TCq2    C5  917   3.557   2.499  12.864
   60TCq2    C6  918   3.575   2.623  12.811
   60TCq2    C7  919   3.657   2.718  12.865
   60TCq2    C8  920   3.503   2.646  12.685
   60TCq2    O4  921   3.478   2.543  12.622
   60TCq2    C9  922   3.603   2.345  13.038
   60TCq2    O5  923   3.514   2.272  13.001
   60TCq2    O6  924   3.716   2.297  13.094
   60TCq2    H2  925   3.739   2.563  13.152
   60TCq2    H3  926   3.483   2.429  12.827
   60TCq2    H4  927   3.678   2.812  12.814
   61MPD2     C  928   2.781   3.700  14.866
   61MPD2    C1  929   2.843   3.801  14.930
   61MPD2    C2  930   2.830   3.930  14.886
   61MPD2    C3  931   2.752   3.969  14.775
   61MPD2    C4  932   2.698   3.855  14.709
   61MPD2    C5  933   2.712   3.725  14.750
   61MPD2     H  934   2.877   4.008  14.944
   61MPD2    H1  935   2.645   3.872  14.616
   61MPD2    H2  936   2.788   3.598  14.903
   61MPD2    H3  937   2.666   3.643  14.696
   61MPD2     N  938   2.737   4.103  14.713
   61MPD2    H5  939   2.685   4.114  14.627
   61MPD2    N1  940   2.900   3.795  15.057
   61MPD2    H7  941   2.906   3.884  15.105
   62TCq2    C1  942   2.940   3.682  15.120
   62TCq2    O2  943   2.944   3.564  15.081
   62TCq2    C2  944   3.001   3.708  15.251
   62TCq2    C3  945   3.051   3.604  15.326
   62TCq2    C4  946   3.109   3.631  15.449
   62TCq2    C5  947   3.129   3.754  15.489
   62TCq2    C6  948   3.077   3.861  15.420
   62TCq2    C7  949   3.017   3.840  15.297
   62TCq2    C8  950   3.086   3.997  15.470
   62TCq2    O4  951   3.043   4.090  15.402
   62TCq2    C9  952   3.215   3.536  15.495
   62TCq2    O5  953   3.229   3.494  15.610
   62TCq2    O6  954   3.315   3.599  15.427
   62TCq2    H2  955   3.047   3.501  15.293
   62TCq2    H3  956   3.202   3.770  15.569
   62TCq2    H4  957   2.972   3.927  15.250
   63TMC2    C1  958   2.172   4.775  10.706
   63TMC2    C2  959   2.287   4.702  10.691
   63TMC2    C3  960   2.338   4.667  10.568
   63TMC2    C4  961   2.105   0.018  10.597
   63TMC2    C5  962   2.165   4.795  10.473
   63TMC2    C6  963   2.277   4.715  10.456
   63TMC2     C  964   2.093   4.735  10.817
   63TMC2     O  965   1.996   4.794  10.857
   63TMC2     H  966   2.348   4.693  10.780
   63TMC2    H1  967   2.013   0.073  10.611
   63TMC2    H2  968   2.289   4.665  10.360
   63TMC2    C7  969   2.079   0.016  10.358
   63TMC2    C8  970   2.466   4.608  10.559
   63TMC2    O1  971   1.959   0.013  10.383
   63TMC2    O2  972   2.521   4.550  10.652
   63TMC2    O5  973   2.538   4.674  10.463
   63TMC2    H5  974   2.481   4.719  10.397
   64MPD2     C  975   1.914   4.338  11.061
   64MPD2    C1  976   2.046   4.303  11.021
   64MPD2    C2  977   2.122   4.401  10.965
   64MPD2    C3  978   2.064   4.529  10.945
   64MPD2    C4  979   1.941   4.561  11.004
   64MPD2    C5  980   1.869   4.470  11.067
   64MPD2     H  981   2.217   4.379  10.916
   64MPD2    H1  982   1.894   4.659  11.000
   64MPD2    H2  983   1.844   4.262  11.095
   64MPD2    H3  984   1.766   4.492  11.092
   64MPD2     N  985   2.135   4.614  10.857
   64MPD2    H5  986   2.218   4.580  10.809
   64MPD2    N1  987   2.095   4.169  11.020
   64MPD2    H7  988   2.190   4.152  10.989
   65MPD2     C  989   3.908   3.203  16.006
   65MPD2    C1  990   3.933   3.208  15.869
   65MPD2    C2  991   3.939   3.086  15.811
   65MPD2    C3  992   3.912   2.967  15.875
   65MPD2    C4  993   3.892   2.964  16.008
   65MPD2    C5  994   3.884   3.082  16.070
   65MPD2     H  995   3.975   3.092  15.708
   65MPD2    H1  996   3.882   2.871  16.063
   65MPD2    H2  997   3.886   3.292  16.063
   65MPD2    H3  998   3.851   3.081  16.174
   65MPD2     N  999   3.917   2.835  15.818
   65MPD2    H5 1000   3.881   2.757  15.872
   65MPD2    N1 1001   3.950   3.323  15.789
   65MPD2    H7 1002   3.948   3.306  15.689
   66TCq2    C1 1003   3.965   3.449  15.842
   66TCq2    O2 1004   3.945   3.474  15.963
   66TCq2    C2 1005   3.967   3.557  15.750
   66TCq2    C3 1006   4.018   3.543  15.623
   66TCq2    C4 1007   3.968   3.639  15.540
   66TCq2    C5 1008   3.883   3.737  15.570
   66TCq2    C6 1009   3.839   3.754  15.695
   66TCq2    C7 1010   3.882   3.661  15.790
   66TCq2    C8 1011   3.809   3.886  15.732
   66TCq2    O4 1012   3.821   3.972  15.646
   66TCq2    C9 1013   3.998   3.626  15.395
   66TCq2    O5 1014   4.050   3.523  15.361
   66TCq2    O6 1015   4.039   3.745  15.343
   66TCq2    H2 1016   4.074   3.455  15.593
   66TCq2    H3 1017   3.845   3.811  15.501
   66TCq2    H4 1018   3.844   3.657  15.891
   67MPD2     C 1019   3.862   2.518  14.399
   67MPD2    C1 1020   3.823   2.639  14.461
   67MPD2    C2 1021   3.683   2.681  14.459
   67MPD2    C3 1022   3.585   2.605  14.391
   67MPD2    C4 1023   3.626   2.497  14.319
   67MPD2    C5 1024   3.759   2.448  14.333
   67MPD2     H 1025   3.654   2.778  14.498
   67MPD2    H1 1026   3.555   2.451  14.252
   67MPD2    H2 1027   3.962   2.476  14.399
   67MPD2    H3 1028   3.792   2.351  14.297
   67MPD2     N 1029   3.450   2.650  14.375
   67MPD2    H5 1030   3.395   2.619  14.295
   67MPD2    N1 1031   3.918   2.730  14.507
   67MPD2    H7 1032   3.884   2.818  14.547
   68TCq2    C1 1033   4.050   2.702  14.540
   68TCq2    O2 1034   4.114   2.600  14.537
   68TCq2    C2 1035   4.105   2.807  14.617
   68TCq2    C3 1036   4.036   2.921  14.647
   68TCq2    C4 1037   4.085   2.998  14.755
   68TCq2    C5 1038   4.196   2.960  14.821
   68TCq2    C6 1039   4.271   2.860  14.772
   68TCq2    C7 1040   4.227   2.784  14.666
   68TCq2    C8 1041   4.387   2.804  14.849
   68TCq2    O4 1042   4.467   2.728  14.795
   68TCq2    C9 1043   4.023   3.125  14.789
   68TCq2    O5 1044   3.942   3.195  14.731
   68TCq2    O6 1045   4.027   3.126  14.926
   68TCq2    H2 1046   3.947   2.952  14.593
   68TCq2    H3 1047   4.243   3.014  14.903
   68TCq2    H4 1048   4.287   2.702  14.629
   69TMC2    C1 1049   1.312   4.159  12.862
   69TMC2    C2 1050   1.188   4.117  12.830
   69TMC2    C3 1051   1.145   4.124  12.700
   69TMC2    C4 1052   1.405   4.171  12.765
   69TMC2    C5 1053   1.360   4.170  12.634
   69TMC2    C6 1054   1.228   4.150  12.600
   69TMC2     C 1055   1.359   4.092  12.984
   69TMC2     O 1056   1.298   3.996  13.030
   69TMC2     H 1057   1.119   4.100  12.912
   69TMC2    H1 1058   1.512   4.167  12.786
   69TMC2    H2 1059   1.201   4.141  12.495
   69TMC2    C7 1060   1.464   4.206  12.544
   69TMC2    C8 1061   1.023   4.046  12.672
   69TMC2    O1 1062   1.582   4.171  12.555
   69TMC2    O2 1063   0.992   3.970  12.764
   69TMC2    O5 1064   0.974   4.072  12.548
   69TMC2    H5 1065   1.026   4.146  12.510
   70MPD2     C 1066   1.662   4.210  13.178
   70MPD2    C1 1067   1.548   4.134  13.143
   70MPD2    C2 1068   1.517   4.031  13.227
   70MPD2    C3 1069   1.594   4.002  13.336
   70MPD2    C4 1070   1.702   4.073  13.363
   70MPD2    C5 1071   1.740   4.177  13.282
   70MPD2     H 1072   1.434   3.967  13.198
   70MPD2    H1 1073   1.760   4.052  13.453
   70MPD2    H2 1074   1.695   4.292  13.115
   70MPD2    H3 1075   1.831   4.235  13.292
   70MPD2     N 1076   1.559   3.901  13.434
   70MPD2    H5 1077   1.619   3.892  13.515
   70MPD2    N1 1078   1.473   4.156  13.025
   70MPD2    H7 1079   1.503   4.232  12.965
   71TMC2    C1 1080   3.101   4.237  19.370
   71TMC2    C2 1081   3.121   4.340  19.466
   71TMC2    C3 1082   3.015   4.386  19.536
   71TMC2    C4 1083   2.969   4.199  19.343
   71TMC2    C5 1084   2.861   4.257  19.411
   71TMC2    C6 1085   2.887   4.346  19.514
   71TMC2     C 1086   3.208   4.226  19.269
   71TMC2     O 1087   3.170   4.227  19.150
   71TMC2     H 1088   3.221   4.380  19.483
   71TMC2    H1 1089   2.955   4.134  19.257
   71TMC2    H2 1090   2.814   4.359  19.593
   71TMC2    C7 1091   2.721   4.200  19.431
   71TMC2    C8 1092   3.039   4.499  19.624
   71TMC2    O1 1093   2.700   4.093  19.387
   71TMC2    O2 1094   3.151   4.532  19.657
   71TMC2    O5 1095   2.944   4.593  19.605
   71TMC2    H5 1096   2.877   4.556  19.544
   72MPD2     C 1097   3.680   4.368  19.139
   72MPD2    C1 1098   3.568   4.369  19.063
   72MPD2    C2 1099   3.447   4.315  19.115
   72MPD2    C3 1100   3.443   4.274  19.248
   72MPD2    C4 1101   3.556   4.289  19.321
   72MPD2    C5 1102   3.670   4.329  19.272
   72MPD2     H 1103   3.355   4.316  19.057
   72MPD2    H1 1104   3.558   4.279  19.428
   72MPD2    H2 1105   3.774   4.411  19.104
   72MPD2    H3 1106   3.757   4.335  19.337
   72MPD2     N 1107   3.331   4.241  19.320
   72MPD2    H5 1108   3.348   4.236  19.420
   72MPD2    N1 1109   3.552   4.443  18.941
   72MPD2    H7 1110   3.459   4.441  18.901
   73TMC2    C1 1111   3.076   1.383  14.266
   73TMC2    C2 1112   3.025   1.448  14.377
   73TMC2    C3 1113   3.076   1.414  14.499
   73TMC2    C4 1114   3.188   1.300  14.274
   73TMC2    C5 1115   3.250   1.287  14.394
   73TMC2    C6 1116   3.188   1.337  14.506
   73TMC2     C 1117   3.076   1.473  14.158
   73TMC2     O 1118   3.191   1.472  14.110
   73TMC2     H 1119   2.955   1.531  14.370
   73TMC2    H1 1120   3.234   1.256  14.187
   73TMC2    H2 1121   3.249   1.334  14.596
   73TMC2    C7 1122   3.390   1.311  14.380
   73TMC2    C8 1123   3.072   1.523  14.597
   73TMC2    O1 1124   3.462   1.289  14.478
   73TMC2    O2 1125   3.173   1.566  14.656
   73TMC2    O5 1126   2.954   1.585  14.588
   73TMC2    H5 1127   2.883   1.537  14.540
   74MPD2     C 1128   2.896   1.842  13.880
   74MPD2    C1 1129   3.021   1.796  13.902
   74MPD2    C2 1130   3.037   1.678  13.968
   74MPD2    C3 1131   2.933   1.624  14.035
   74MPD2    C4 1132   2.807   1.671  14.018
   74MPD2    C5 1133   2.790   1.783  13.943
   74MPD2     H 1134   3.134   1.630  13.964
   74MPD2    H1 1135   2.721   1.624  14.064
   74MPD2    H2 1136   2.884   1.939  13.833
   74MPD2    H3 1137   2.689   1.817  13.923
   74MPD2     N 1138   2.946   1.516  14.115
   74MPD2    H5 1139   2.865   1.477  14.162
   74MPD2    N1 1140   3.125   1.863  13.836
   74MPD2    H7 1141   3.102   1.951  13.791
   75TCq2    C1 1142   3.385   2.712  14.474
   75TCq2    O2 1143   3.414   2.736  14.591
   75TCq2    C2 1144   3.245   2.738  14.436
   75TCq2    C3 1145   3.162   2.783  14.534
   75TCq2    C4 1146   3.069   2.869  14.501
   75TCq2    C5 1147   3.051   2.914  14.373
   75TCq2    C6 1148   3.127   2.860  14.273
   75TCq2    C7 1149   3.225   2.769  14.300
   75TCq2    C8 1150   3.098   2.900  14.138
   75TCq2    O4 1151   3.129   2.817  14.048
   75TCq2    C9 1152   3.005   2.938  14.601
   75TCq2    O5 1153   2.956   3.049  14.583
   75TCq2    O6 1154   2.962   2.837  14.687
   75TCq2    H2 1155   3.179   2.752  14.636
   75TCq2    H3 1156   2.968   2.980  14.352
   75TCq2    H4 1157   3.298   2.743  14.225
   76MPD2     C 1158   2.456   3.830  12.264
   76MPD2    C1 1159   2.336   3.781  12.215
   76MPD2    C2 1160   2.303   3.650  12.224
   76MPD2    C3 1161   2.392   3.563  12.287
   76MPD2    C4 1162   2.512   3.609  12.335
   76MPD2    C5 1163   2.541   3.743  12.327
   76MPD2     H 1164   2.208   3.612  12.187
   76MPD2    H1 1165   2.585   3.546  12.385
   76MPD2    H2 1166   2.497   3.930  12.261
   76MPD2    H3 1167   2.629   3.784  12.374
   76MPD2     N 1168   2.377   3.420  12.299
   76MPD2    H5 1169   2.456   3.365  12.332
   76MPD2    N1 1170   2.241   3.872  12.162
   76MPD2    H7 1171   2.149   3.833  12.146
   77TCq2    C1 1172   2.267   3.348  12.276
   77TCq2    O2 1173   2.161   3.391  12.226
   77TCq2    C2 1174   2.281   3.203  12.293
   77TCq2    C3 1175   2.181   3.128  12.235
   77TCq2    C4 1176   2.209   3.000  12.213
   77TCq2    C5 1177   2.319   2.932  12.242
   77TCq2    C6 1178   2.414   3.011  12.296
   77TCq2    C7 1179   2.400   3.143  12.322
   77TCq2    C8 1180   2.528   2.937  12.347
   77TCq2    O4 1181   2.557   2.830  12.299
   77TCq2    C9 1182   2.099   2.913  12.171
   77TCq2    O5 1183   2.093   2.792  12.189
   77TCq2    O6 1184   2.015   2.993  12.105
   77TCq2    H2 1185   2.088   3.177  12.208
   77TCq2    H3 1186   2.337   2.827  12.223
   77TCq2    H4 1187   2.481   3.197  12.371
   78MPD1     C 1188   3.246   3.805  19.839
   78MPD1    C1 1189   3.248   3.778  19.703
   78MPD1    C2 1190   3.344   3.829  19.622
   78MPD1    C3 1191   3.450   3.886  19.683
   78MPD1    C4 1192   3.455   3.906  19.826
   78MPD1    C5 1193   3.352   3.870  19.905
   78MPD1     H 1194   3.351   3.821  19.514
   78MPD1    H1 1195   3.545   3.952  19.864
   78MPD1    H2 1196   3.165   3.762  19.897
   78MPD1    H3 1197   3.343   3.890  20.011
   78MPD1     N 1198   3.570   3.931  19.616
   78MPD1    H5 1199   3.647   3.970  19.669
   78MPD1    N1 1200   3.135   3.724  19.650
   78MPD1    H6 1201   3.142   3.679  19.559
   78MPD1    H7 1202   3.104   3.648  19.711
   79TCq2    C1 1203   3.588   3.942  19.475
   79TCq2    O2 1204   3.515   3.917  19.383
   79TCq2    C2 1205   3.734   3.961  19.455
   79TCq2    C3 1206   3.810   3.907  19.558
   79TCq2    C4 1207   3.942   3.932  19.551
   79TCq2    C5 1208   4.006   3.991  19.440
   79TCq2    C6 1209   3.927   4.020  19.329
   79TCq2    C7 1210   3.789   4.011  19.336
   79TCq2    C8 1211   3.986   4.107  19.228
   79TCq2    O4 1212   3.913   4.173  19.154
   79TCq2    C9 1213   4.025   3.853  19.648
   79TCq2    O5 1214   3.983   3.763  19.715
   79TCq2    O6 1215   4.127   3.932  19.682
   79TCq2    H2 1216   3.787   3.845  19.644
   79TCq2    H3 1217   4.112   4.015  19.439
   79TCq2    H4 1218   3.728   4.025  19.248
   80MPD2     C 1219   1.796   2.953  12.634
   80MPD2    C1 1220   1.664   2.995  12.638
   80MPD2    C2 1221   1.619   3.061  12.744
   80MPD2    C3 1222   1.697   3.070  12.855
   80MPD2    C4 1223   1.821   3.015  12.862
   80MPD2    C5 1224   1.874   2.961  12.748
   80MPD2     H 1225   1.518   3.100  12.750
   80MPD2    H1 1226   1.880   3.021  12.953
   80MPD2    H2 1227   1.841   2.904  12.549
   80MPD2    H3 1228   1.975   2.923  12.748
   80MPD2     N 1229   1.658   3.125  12.974
   80MPD2    H5 1230   1.727   3.128  13.048
   80MPD2    N1 1231   1.578   2.978  12.530
   80MPD2    H7 1232   1.483   2.982  12.565
   81TCq2    C1 1233   1.620   2.976  12.398
   81TCq2    O2 1234   1.731   2.980  12.347
   81TCq2    C2 1235   1.504   2.990  12.308
   81TCq2    C3 1236   1.523   3.090  12.215
   81TCq2    C4 1237   1.404   3.139  12.156
   81TCq2    C5 1238   1.278   3.095  12.199
   81TCq2    C6 1239   1.273   2.996  12.291
   81TCq2    C7 1240   1.387   2.945  12.350
   81TCq2    C8 1241   1.143   2.931  12.315
   81TCq2    O4 1242   1.064   2.943  12.224
   81TCq2    C9 1243   1.397   3.262  12.087
   81TCq2    O5 1244   1.336   3.359  12.124
   81TCq2    O6 1245   1.474   3.253  11.975
   81TCq2    H2 1246   1.611   3.152  12.203
   81TCq2    H3 1247   1.193   3.155  12.171
   81TCq2    H4 1248   1.376   2.867  12.425
   82MPD2     C 1249   3.779   3.090  11.353
   82MPD2    C1 1250   3.804   3.004  11.251
   82MPD2    C2 1251   3.923   2.931  11.249
   82MPD2    C3 1252   4.000   2.919  11.367
   82MPD2    C4 1253   3.972   2.998  11.476
   82MPD2    C5 1254   3.857   3.083  11.471
   82MPD2     H 1255   3.954   2.874  11.161
   82MPD2    H1 1256   4.037   2.996  11.562
   82MPD2    H2 1257   3.696   3.159  11.349
   82MPD2    H3 1258   3.832   3.148  11.554
   82MPD2     N 1259   4.106   2.828  11.375
   82MPD2    H5 1260   4.164   2.840  11.457
   82MPD2    N1 1261   3.715   2.997  11.149
   82MPD2    H7 1262   3.636   3.061  11.148
   83TCq2    C1 1263   4.115   2.711  11.305
   83TCq2    O2 1264   4.030   2.650  11.241
   83TCq2    C2 1265   4.208   2.629  11.381
   83TCq2    C3 1266   4.294   2.706  11.451
   83TCq2    C4 1267   4.373   2.631  11.541
   83TCq2    C5 1268   4.341   2.509  11.577
   83TCq2    C6 1269   4.254   2.445  11.503
   83TCq2    C7 1270   4.182   2.502  11.406
   83TCq2    C8 1271   4.215   2.308  11.555
   83TCq2    O4 1272   4.243   2.286  11.672
   83TCq2    C9 1273   4.511   2.666  11.574
   83TCq2    O5 1274   4.601   2.580  11.587
   83TCq2    O6 1275   4.538   2.796  11.582
   83TCq2    H2 1276   4.342   2.786  11.396
   83TCq2    H3 1277   4.404   2.460  11.651
   83TCq2    H4 1278   4.112   2.445  11.346
   84TCq2    C1 1279   0.727   1.682  11.332
   84TCq2    O2 1280   0.700   1.627  11.225
   84TCq2    C2 1281   0.670   1.620  11.449
   84TCq2    C3 1282   0.736   1.605  11.569
   84TCq2    C4 1283   0.667   1.537  11.662
   84TCq2    C5 1284   0.536   1.507  11.658
   84TCq2    C6 1285   0.474   1.524  11.540
   84TCq2    C7 1286   0.538   1.574  11.431
   84TCq2    C8 1287   0.339   1.577  11.553
   84TCq2    O4 1288   0.305   1.609  11.663
   84TCq2    C9 1289   0.729   1.549  11.789
   84TCq2    O5 1290   0.734   1.465  11.875
   84TCq2    O6 1291   0.760   1.681  11.801
   84TCq2    H2 1292   0.838   1.640  11.580
   84TCq2    H3 1293   0.483   1.448  11.731
   84TCq2    H4 1294   0.479   1.612  11.347
   85MPD2     C 1295   1.141   4.217  16.434
   85MPD2    C1 1296   1.035   4.227  16.353
   85MPD2    C2 1297   1.031   4.325  16.261
   85MPD2    C3 1298   1.138   4.416  16.235
   85MPD2    C4 1299   1.239   4.412  16.328
   85MPD2    C5 1300   1.244   4.313  16.423
   85MPD2     H 1301   0.945   4.328  16.196
   85MPD2    H1 1302   1.310   4.493  16.316
   85MPD2    H2 1303   1.160   4.148  16.516
   85MPD2    H3 1304   1.332   4.308  16.487
   85MPD2     N 1305   1.131   4.513  16.127
   85MPD2    H5 1306   1.045   4.512  16.074
   85MPD2    N1 1307   0.928   4.131  16.359
   85MPD2    H7 1308   0.859   4.140  16.285
   86TCq2    C1 1309   1.239   4.600  16.088
   86TCq2    O2 1310   1.357   4.574  16.096
   86TCq2    C2 1311   1.209   4.705  15.990
   86TCq2    C3 1312   1.073   4.741  15.983
   86TCq2    C4 1313   1.041   0.028  15.890
   86TCq2    C5 1314   1.135   0.084  15.809
   86TCq2    C6 1315   1.261   0.033  15.816
   86TCq2    C7 1316   1.303   4.742  15.900
   86TCq2    C8 1317   1.360   0.085  15.731
   86TCq2    O4 1318   1.463   0.025  15.729
   86TCq2    C9 1319   0.922   0.104  15.919
   86TCq2    O5 1320   0.903   0.215  15.878
   86TCq2    O6 1321   0.833   0.005  15.932
   86TCq2    H2 1322   1.002   4.720  16.062
   86TCq2    H3 1323   1.101   0.151  15.730
   86TCq2    H4 1324   1.405   4.716  15.925
   87MPD2     C 1325   2.944   2.756  18.933
   87MPD2    C1 1326   3.052   2.838  18.940
   87MPD2    C2 1327   3.037   2.971  18.918
   87MPD2    C3 1328   2.916   3.030  18.891
   87MPD2    C4 1329   2.804   2.954  18.888
   87MPD2    C5 1330   2.822   2.817  18.904
   87MPD2     H 1331   3.127   3.029  18.904
   87MPD2    H1 1332   2.708   2.994  18.861
   87MPD2    H2 1333   2.959   2.648  18.936
   87MPD2    H3 1334   2.737   2.750  18.896
   87MPD2     N 1335   2.900   3.168  18.878
   87MPD2    H5 1336   2.808   3.206  18.860
   87MPD2    N1 1337   3.180   2.775  18.938
   87MPD2    H7 1338   3.184   2.677  18.914
   88TCq2    C1 1339   3.284   2.844  18.982
   88TCq2    O2 1340   3.286   2.945  19.055
   88TCq2    C2 1341   3.407   2.765  18.988
   88TCq2    C3 1342   3.483   2.781  19.100
   88TCq2    C4 1343   3.574   2.684  19.124
   88TCq2    C5 1344   3.592   2.585  19.030
   88TCq2    C6 1345   3.510   2.570  18.918
   88TCq2    C7 1346   3.420   2.669  18.886
   88TCq2    C8 1347   3.569   2.492  18.810
   88TCq2    O4 1348   3.576   2.538  18.697
   88TCq2    C9 1349   3.706   2.730  19.167
   88TCq2    O5 1350   3.807   2.710  19.100
   88TCq2    O6 1351   3.679   2.843  19.245
   88TCq2    H2 1352   3.466   2.866  19.166
   88TCq2    H3 1353   3.675   2.517  19.048
   88TCq2    H4 1354   3.358   2.660  18.797
   89MPD2     C 1355   4.188   0.808  19.424
   89MPD2    C1 1356   4.133   0.891  19.325
   89MPD2    C2 1357   4.204   1.007  19.286
   89MPD2    C3 1358   4.329   1.039  19.346
   89MPD2    C4 1359   4.373   0.950  19.441
   89MPD2    C5 1360   4.305   0.838  19.484
   89MPD2     H 1361   4.147   1.075  19.225
   89MPD2    H1 1362   4.468   0.962  19.492
   89MPD2    H2 1363   4.137   0.716  19.451
   89MPD2    H3 1364   4.358   0.780  19.558
   89MPD2     N 1365   4.408   1.150  19.294
   89MPD2    H5 1366   4.376   1.202  19.213
   89MPD2    N1 1367   4.007   0.852  19.266
   89MPD2    H7 1368   3.978   0.911  19.189
   90TCq2    C1 1369   4.537   1.186  19.335
   90TCq2    O2 1370   4.617   1.122  19.400
   90TCq2    C2 1371   4.604   1.309  19.283
   90TCq2    C3 1372   4.522   1.414  19.239
   90TCq2    C4 1373   4.580   1.529  19.209
   90TCq2    C5 1374   4.715   1.548  19.208
   90TCq2    C6 1375   4.795   1.444  19.237
   90TCq2    C7 1376   4.741   1.331  19.292
   90TCq2    C8 1377   0.138   1.476  19.256
   90TCq2    O4 1378   0.198   1.422  19.349
   90TCq2    C9 1379   4.489   1.641  19.167
   90TCq2    O5 1380   4.388   1.666  19.227
   90TCq2    O6 1381   4.524   1.670  19.042
   90TCq2    H2 1382   4.415   1.401  19.242
   90TCq2    H3 1383   4.755   1.645  19.179
   90TCq2    H4 1384   0.004   1.250  19.318
   91TMC2    C1 1385   1.022   0.648  16.542
   91TMC2    C2 1386   1.068   0.705  16.652
   91TMC2    C3 1387   0.977   0.708  16.761
   91TMC2    C4 1388   0.893   0.600  16.531
   91TMC2    C5 1389   0.823   0.590  16.650
   91TMC2    C6 1390   0.859   0.640  16.773
   91TMC2     C 1391   1.108   0.631  16.423
   91TMC2     O 1392   1.058   0.580  16.324
   91TMC2     H 1393   1.171   0.734  16.673
   91TMC2    H1 1394   0.856   0.561  16.437
   91TMC2    H2 1395   0.792   0.644  16.858
   91TMC2    C7 1396   0.707   0.500  16.652
   91TMC2    C8 1397   1.008   0.794  16.879
   91TMC2    O1 1398   0.670   0.462  16.762
   91TMC2    O2 1399   0.947   0.797  16.986
   91TMC2    O5 1400   1.078   0.894  16.823
   91TMC2    H5 1401   1.115   0.867  16.736
   92MPD2     C 1402   1.317   0.601  16.218
   92MPD2    C1 1403   1.338   0.649  16.348
   92MPD2    C2 1404   1.464   0.685  16.384
   92MPD2    C3 1405   1.569   0.655  16.297
   92MPD2    C4 1406   1.539   0.613  16.174
   92MPD2    C5 1407   1.417   0.586  16.128
   92MPD2     H 1408   1.481   0.730  16.482
   92MPD2    H1 1409   1.618   0.597  16.102
   92MPD2    H2 1410   1.224   0.559  16.183
   92MPD2    H3 1411   1.397   0.546  16.029
   92MPD2     N 1412   1.700   0.696  16.337
   92MPD2    H5 1413   1.706   0.762  16.413
   92MPD2    N1 1414   1.234   0.666  16.443
   92MPD2    H7 1415   1.256   0.721  16.526
   93MPD2     C 1416   2.945   0.804  13.842
   93MPD2    C1 1417   2.918   0.809  13.974
   93MPD2    C2 1418   2.783   0.781  14.021
   93MPD2    C3 1419   2.679   0.746  13.932
   93MPD2    C4 1420   2.716   0.745  13.800
   93MPD2    C5 1421   2.844   0.764  13.754
   93MPD2     H 1422   2.752   0.793  14.125
   93MPD2    H1 1423   2.644   0.718  13.723
   93MPD2    H2 1424   3.034   0.832  13.788
   93MPD2    H3 1425   2.865   0.759  13.648
   93MPD2     N 1426   2.545   0.726  13.958
   93MPD2    H5 1427   2.487   0.679  13.889
   93MPD2    N1 1428   3.020   0.838  14.064
   93MPD2    H7 1429   2.983   0.851  14.158
   94TCq2    C1 1430   3.151   0.876  14.028
   94TCq2    O2 1431   3.211   0.867  13.922
   94TCq2    C2 1432   3.235   0.939  14.128
   94TCq2    C3 1433   3.222   0.901  14.261
   94TCq2    C4 1434   3.332   0.924  14.340
   94TCq2    C5 1435   3.454   0.973  14.296
   94TCq2    C6 1436   3.458   1.016  14.171
   94TCq2    C7 1437   3.354   0.999  14.089
   94TCq2    C8 1438   3.593   1.030  14.123
   94TCq2    O4 1439   3.678   0.954  14.171
   94TCq2    C9 1440   3.330   0.876  14.475
   94TCq2    O5 1441   3.435   0.867  14.537
   94TCq2    O6 1442   3.221   0.923  14.537
   94TCq2    H2 1443   3.135   0.854  14.305
   94TCq2    H3 1444   3.531   0.989  14.371
   94TCq2    H4 1445   3.370   1.015  13.983
   95TMC2    C1 1446   3.138   2.812  15.884
   95TMC2    C2 1447   3.166   2.933  15.930
   95TMC2    C3 1448   3.088   3.034  15.885
   95TMC2    C4 1449   3.036   2.784  15.795
   95TMC2    C5 1450   2.956   2.887  15.753
   95TMC2    C6 1451   2.974   3.011  15.809
   95TMC2     C 1452   3.251   2.717  15.901
   95TMC2     O 1453   3.358   2.769  15.914
   95TMC2     H 1454   3.244   2.936  16.005
   95TMC2    H1 1455   3.035   2.686  15.749
   95TMC2    H2 1456   2.920   3.099  15.776
   95TMC2    C7 1457   2.865   2.874  15.651
   95TMC2    C8 1458   3.119   3.170  15.919
   95TMC2    O1 1459   2.813   2.977  15.608
   95TMC2    O2 1460   3.027   3.253  15.920
   95TMC2    O5 1461   3.243   3.170  15.981
   95TMC2    H5 1462   3.287   3.086  15.956
   96MPD2     C 1463   3.425   2.253  15.909
   96MPD2    C1 1464   3.494   2.370  15.903
   96MPD2    C2 1465   3.426   2.488  15.917
   96MPD2    C3 1466   3.285   2.483  15.921
   96MPD2    C4 1467   3.223   2.361  15.933
   96MPD2    C5 1468   3.294   2.248  15.937
   96MPD2     H 1469   3.483   2.579  15.904
   96MPD2    H1 1470   3.115   2.366  15.942
   96MPD2    H2 1471   3.471   2.159  15.880
   96MPD2    H3 1472   3.262   2.144  15.940
   96MPD2     N 1473   3.204   2.591  15.911
   96MPD2    H5 1474   3.105   2.572  15.902
   96MPD2    N1 1475   3.631   2.367  15.851
   96MPD2    H7 1476   3.676   2.279  15.829
   97MPD2     C 1477   0.246   4.693  18.865
   97MPD2    C1 1478   0.278   0.020  18.885
   97MPD2    C2 1479   0.277   0.107  18.777
   97MPD2    C3 1480   0.210   0.064  18.660
   97MPD2    C4 1481   0.166   4.743  18.646
   97MPD2    C5 1482   0.183   4.657  18.746
   97MPD2     H 1483   0.315   0.208  18.772
   97MPD2    H1 1484   0.126   4.702  18.554
   97MPD2    H2 1485   0.278   4.612  18.928
   97MPD2    H3 1486   0.163   4.554  18.721
   97MPD2     N 1487   0.193   0.147  18.549
   97MPD2    H5 1488   0.163   0.095  18.468
   97MPD2    N1 1489   0.340   0.044  19.010
   97MPD2    H7 1490   0.334   4.776  19.080
   98TCq2    C1 1491   0.218   0.284  18.541
   98TCq2    O2 1492   0.261   0.367  18.623
   98TCq2    C2 1493   0.191   0.344  18.407
   98TCq2    C3 1494   0.154   0.268  18.295
   98TCq2    C4 1495   0.166   0.327  18.171
   98TCq2    C5 1496   0.204   0.456  18.153
   98TCq2    C6 1497   0.234   0.530  18.267
   98TCq2    C7 1498   0.226   0.476  18.389
   98TCq2    C8 1499   0.307   0.659  18.254
   98TCq2    O4 1500   0.358   0.713  18.350
   98TCq2    C9 1501   0.152   0.260  18.049
   98TCq2    O5 1502   0.087   0.305  17.957
   98TCq2    O6 1503   0.270   0.196  18.044
   98TCq2    H2 1504   0.124   0.163  18.297
   98TCq2    H3 1505   0.197   0.495  18.052
   98TCq2    H4 1506   0.266   0.540  18.466
   99MPD2     C 1507   4.081   2.523  19.794
   99MPD2    C1 1508   3.953   2.485  19.805
   99MPD2    C2 1509   3.908   2.377  19.732
   99MPD2    C3 1510   3.991   2.322  19.636
   99MPD2    C4 1511   4.113   2.370  19.616
   99MPD2    C5 1512   4.159   2.470  19.700
   99MPD2     H 1513   3.811   2.335  19.758
   99MPD2    H1 1514   4.185   2.344  19.539
   99MPD2    H2 1515   4.127   2.612  19.836
   99MPD2    H3 1516   4.254   2.520  19.685
   99MPD2     N 1517   3.944   2.205  19.578
   99MPD2    H5 1518   3.850   2.179  19.607
   99MPD2    N1 1519   3.860   2.559  19.883
   99MPD2    H7 1520   3.766   2.523  19.885
  100TCq2    C1 1521   3.885   2.684  19.938
  100TCq2    O2 1522   3.991   2.739  19.950
  100TCq2    C2 1523   3.766   2.754  19.985
  100TCq2    C3 1524   3.794   2.859  20.064
  100TCq2    C4 1525   3.694   2.947  20.103
  100TCq2    C5 1526   3.571   2.936  20.045
  100TCq2    C6 1527   3.552   2.837  19.955
  100TCq2    C7 1528   3.645   2.738  19.921
  100TCq2    C8 1529   3.422   2.834  19.888
  100TCq2    O4 1530   3.359   2.935  19.887
  100TCq2    C9 1531   3.713   2.983  20.242
  100TCq2    O5 1532   3.813   2.960  20.309
  100TCq2    O6 1533   3.600   3.017  20.302
  100TCq2    H2 1534   3.894   2.874  20.103
  100TCq2    H3 1535   3.487   3.003  20.064
  100TCq2    H4 1536   3.623   2.658  19.851
  101MPD2     C 1537   0.173   3.113  13.087
  101MPD2    C1 1538   0.082   3.192  13.148
  101MPD2    C2 1539   4.800   3.139  13.247
  101MPD2    C3 1540   0.005   3.010  13.290
  101MPD2    C4 1541   0.103   2.930  13.233
  101MPD2    C5 1542   0.186   2.983  13.136
  101MPD2     H 1543   4.736   3.202  13.308
  101MPD2    H1 1544   0.130   2.838  13.283
  101MPD2    H2 1545   0.243   3.142  13.010
  101MPD2    H3 1546   0.269   2.925  13.099
  101MPD2     N 1547   4.731   2.963  13.395
  101MPD2    H5 1548   4.667   3.030  13.436
  101MPD2    N1 1549   0.092   3.334  13.121
  101MPD2    H7 1550   0.165   3.363  13.056
  102TCq2    C1 1551   0.339   3.732  13.040
  102TCq2    O2 1552   0.424   3.653  13.071
  102TCq2    C2 1553   0.212   3.714  13.088
  102TCq2    C3 1554   0.112   3.809  13.077
  102TCq2    C4 1555   4.788   3.780  13.111
  102TCq2    C5 1556   4.755   3.659  13.144
  102TCq2    C6 1557   0.045   3.561  13.138
  102TCq2    C7 1558   0.174   3.587  13.111
  102TCq2    C8 1559   0.002   3.427  13.164
  102TCq2    O4 1560   4.698   3.407  13.223
  102TCq2    C9 1561   4.685   3.865  13.072
  102TCq2    O5 1562   4.574   3.861  13.128
  102TCq2    O6 1563   4.711   3.917  12.952
  102TCq2    H2 1564   0.135   3.913  13.057
  102TCq2    H3 1565   4.656   3.632  13.181
  102TCq2    H4 1566   0.249   3.513  13.086
  103TMC2    C1 1567   2.963   3.357  12.883
  103TMC2    C2 1568   3.093   3.386  12.846
  103TMC2    C3 1569   3.147   3.492  12.913
  103TMC2    C4 1570   2.886   3.430  12.963
  103TMC2    C5 1571   2.942   3.536  13.021
  103TMC2    C6 1572   3.074   3.570  12.999
  103TMC2     C 1573   2.893   3.279  12.782
  103TMC2     O 1574   2.784   3.326  12.757
  103TMC2     H 1575   3.149   3.333  12.770
  103TMC2    H1 1576   2.783   3.403  12.986
  103TMC2    H2 1577   3.125   3.643  13.062
  103TMC2    C7 1578   2.866   3.607  13.124
  103TMC2    C8 1579   3.288   3.517  12.889
  103TMC2    O1 1580   2.768   3.546  13.168
  103TMC2    O2 1581   3.365   3.427  12.853
  103TMC2    O5 1582   3.307   3.650  12.916
  103TMC2    H5 1583   3.232   3.713  12.910
  104MPD2     C 1584   2.949   2.933  12.656
  104MPD2    C1 1585   2.888   3.059  12.663
  104MPD2    C2 1586   2.763   3.075  12.605
  104MPD2    C3 1587   2.708   2.977  12.518
  104MPD2    C4 1588   2.770   2.857  12.509
  104MPD2    C5 1589   2.889   2.836  12.580
  104MPD2     H 1590   2.714   3.172  12.603
  104MPD2    H1 1591   2.725   2.777  12.452
  104MPD2    H2 1592   3.046   2.913  12.701
  104MPD2    H3 1593   2.944   2.742  12.582
  104MPD2     N 1594   2.594   3.012  12.435
  104MPD2    H5 1595   2.552   3.101  12.461
  104MPD2    N1 1596   2.958   3.163  12.733
  104MPD2    H7 1597   3.046   3.142  12.779
  105MPD2     C 1598   4.762   2.521  17.905
  105MPD2    C1 1599   4.664   2.614  17.877
  105MPD2    C2 1600   4.536   2.597  17.924
  105MPD2    C3 1601   4.505   2.483  17.995
  105MPD2    C4 1602   4.610   2.401  18.029
  105MPD2    C5 1603   4.739   2.419  17.990
  105MPD2     H 1604   4.455   2.666  17.903
  105MPD2    H1 1605   4.593   2.307  18.080
  105MPD2    H2 1606   0.056   2.528  17.861
  105MPD2    H3 1607   0.002   2.337  18.011
  105MPD2     N 1608   4.371   2.471  18.032
  105MPD2    H5 1609   4.316   2.556  18.021
  105MPD2    N1 1610   4.669   2.716  17.779
  105MPD2    H7 1611   4.586   2.770  17.760
  106TCq2    C1 1612   4.328   2.365  18.109
  106TCq2    O2 1613   4.382   2.258  18.132
  106TCq2    C2 1614   4.186   2.379  18.137
  106TCq2    C3 1615   4.104   2.481  18.083
  106TCq2    C4 1616   3.975   2.477  18.117
  106TCq2    C5 1617   3.930   2.392  18.210
  106TCq2    C6 1618   4.012   2.299  18.265
  106TCq2    C7 1619   4.140   2.283  18.220
  106TCq2    C8 1620   3.976   2.217  18.380
  106TCq2    O4 1621   4.035   2.111  18.398
  106TCq2    C9 1622   3.890   2.593  18.088
  106TCq2    O5 1623   3.798   2.625  18.162
  106TCq2    O6 1624   3.931   2.652  17.974
  106TCq2    H2 1625   4.139   2.554  18.010
  106TCq2    H3 1626   3.826   2.405  18.237
  106TCq2    H4 1627   4.205   2.214  18.273
  107TMC2    C1 1628   0.021   2.295  11.671
  107TMC2    C2 1629   0.028   2.406  11.583
  107TMC2    C3 1630   4.786   2.387  11.455
  107TMC2    C4 1631   4.756   2.188  11.635
  107TMC2    C5 1632   4.715   2.173  11.507
  107TMC2    C6 1633   4.710   2.280  11.423
  107TMC2     C 1634   0.026   2.347  11.810
  107TMC2     O 1635   0.050   2.265  11.899
  107TMC2     H 1636   0.092   2.492  11.600
  107TMC2    H1 1637   4.742   2.109  11.708
  107TMC2    H2 1638   4.692   2.257  11.318
  107TMC2    C7 1639   4.700   2.045  11.442
  107TMC2    C8 1640   0.039   2.468  11.357
  107TMC2    O1 1641   4.611   2.028  11.358
  107TMC2    O2 1642   0.150   2.519  11.370
  107TMC2    O5 1643   4.728   2.540  11.313
  107TMC2    H5 1644   4.652   2.481  11.296
  108MPD2     C 1645   4.674   2.671  11.901
  108MPD2    C1 1646   4.730   2.545  11.927
  108MPD2    C2 1647   4.721   2.498  12.059
  108MPD2    C3 1648   4.675   2.583  12.165
  108MPD2    C4 1649   4.628   2.710  12.136
  108MPD2    C5 1650   4.622   2.748  12.006
  108MPD2     H 1651   4.746   2.395  12.082
  108MPD2    H1 1652   4.581   2.776  12.208
  108MPD2    H2 1653   4.690   2.709  11.801
  108MPD2    H3 1654   4.573   2.843  11.986
  108MPD2     N 1655   4.658   2.541  12.300
  108MPD2    H5 1656   4.632   2.614  12.365
  108MPD2    N1 1657   4.773   2.467  11.811
  108MPD2    H7 1658   4.758   2.508  11.720
  109MPD2     C 1659   4.031   0.159  19.337
  109MPD2    C1 1660   4.056   0.069  19.436
  109MPD2    C2 1661   4.184   0.052  19.483
  109MPD2    C3 1662   4.287   0.082  19.394
  109MPD2    C4 1663   4.260   0.157  19.278
  109MPD2    C5 1664   4.132   0.208  19.258
  109MPD2     H 1665   4.209   4.791  19.566
  109MPD2    H1 1666   4.339   0.193  19.213
  109MPD2    H2 1667   3.929   0.166  19.301
  109MPD2    H3 1668   4.110   0.258  19.165
  109MPD2     N 1669   4.405   0.009  19.424
  109MPD2    H5 1670   4.405   4.770  19.515
  109MPD2    N1 1671   3.948   4.795  19.472
  109MPD2    H7 1672   3.853   0.023  19.460
  110TCq2    C1 1673   4.513   4.797  19.341
  110TCq2    O2 1674   4.517   0.030  19.222
  110TCq2    C2 1675   4.613   4.695  19.378
  110TCq2    C3 1676   4.729   4.674  19.303
  110TCq2    C4 1677   0.027   4.611  19.357
  110TCq2    C5 1678   0.015   4.555  19.481
  110TCq2    C6 1679   4.710   4.581  19.560
  110TCq2    C7 1680   4.601   4.646  19.508
  110TCq2    C8 1681   4.728   4.575  19.705
  110TCq2    O4 1682   4.764   4.474  19.760
  110TCq2    C9 1683   0.157   4.582  19.286
  110TCq2    O5 1684   0.263   4.534  19.337
  110TCq2    O6 1685   0.153   4.652  19.167
  110TCq2    H2 1686   4.724   4.702  19.198
  110TCq2    H3 1687   0.103   4.525  19.535
  110TCq2    H4 1688   4.515   4.672  19.568
  111TMC2    C1 1689   0.031   4.027  12.029
  111TMC2    C2 1690   4.799   4.083  12.153
  111TMC2    C3 1691   0.069   4.045  12.266
  111TMC2    C4 1692   0.153   3.955  12.006
  111TMC2    C5 1693   0.214   3.923  12.121
  111TMC2    C6 1694   0.173   3.957  12.249
  111TMC2     C 1695   4.744   4.046  11.911
  111TMC2     O 1696   4.781   4.027  11.797
  111TMC2     H 1697   4.714   4.147  12.173
  111TMC2    H1 1698   0.186   3.905  11.916
  111TMC2    H2 1699   0.214   3.912  12.339
  111TMC2    C7 1700   0.317   3.825  12.123
  111TMC2    C8 1701   4.801   4.044  12.391
  111TMC2    O1 1702   0.327   3.757  12.226
  111TMC2    O2 1703   4.680   4.070  12.406
  111TMC2    O5 1704   0.089   4.054  12.487
  111TMC2    H5 1705   0.183   4.066  12.462
  112MPD2     C 1706   4.258   4.054  11.733
  112MPD2    C1 1707   4.378   4.067  11.664
  112MPD2    C2 1708   4.497   4.076  11.735
  112MPD2    C3 1709   4.501   4.081  11.875
  112MPD2    C4 1710   4.377   4.076  11.941
  112MPD2    C5 1711   4.259   4.062  11.869
  112MPD2     H 1712   4.586   4.094  11.676
  112MPD2    H1 1713   4.364   4.067  12.048
  112MPD2    H2 1714   4.165   4.030  11.683
  112MPD2    H3 1715   4.169   4.057  11.929
  112MPD2     N 1716   4.614   4.068  11.954
  112MPD2    H5 1717   4.607   4.090  12.052
  112MPD2    N1 1718   4.378   4.065  11.518
  112MPD2    H7 1719   4.469   4.085  11.478
  113MPD2     C 1720   3.027   1.821  19.129
  113MPD2    C1 1721   3.007   1.913  19.031
  113MPD2    C2 1722   2.954   1.875  18.911
  113MPD2    C3 1723   2.921   1.744  18.896
  113MPD2    C4 1724   2.930   1.655  19.002
  113MPD2    C5 1725   2.989   1.694  19.118
  113MPD2     H 1726   2.934   1.943  18.829
  113MPD2    H1 1727   2.892   1.554  18.995
  113MPD2    H2 1728   3.062   1.839  19.229
  113MPD2    H3 1729   2.997   1.632  19.207
  113MPD2     N 1730   2.871   1.688  18.779
  113MPD2    H5 1731   2.838   1.592  18.785
  113MPD2    N1 1732   3.025   2.046  19.063
  113MPD2    H7 1733   2.980   2.112  19.001
  114TCq2    C1 1734   2.845   1.747  18.661
  114TCq2    O2 1735   2.883   1.858  18.625
  114TCq2    C2 1736   2.783   1.647  18.573
  114TCq2    C3 1737   2.739   1.699  18.450
  114TCq2    C4 1738   2.682   1.610  18.363
  114TCq2    C5 1739   2.656   1.474  18.395
  114TCq2    C6 1740   2.705   1.429  18.517
  114TCq2    C7 1741   2.762   1.515  18.608
  114TCq2    C8 1742   2.676   1.288  18.548
  114TCq2    O4 1743   2.665   1.206  18.459
  114TCq2    C9 1744   2.673   1.640  18.216
  114TCq2    O5 1745   2.662   1.553  18.133
  114TCq2    O6 1746   2.682   1.767  18.181
  114TCq2    H2 1747   2.771   1.796  18.413
  114TCq2    H3 1748   2.618   1.400  18.326
  114TCq2    H4 1749   2.814   1.473  18.693
  115TMC2    C1 1750   3.662   4.486  17.841
  115TMC2    C2 1751   3.791   4.447  17.873
  115TMC2    C3 1752   3.891   4.540  17.865
  115TMC2    C4 1753   3.626   4.609  17.801
  115TMC2    C5 1754   3.730   4.697  17.790
  115TMC2    C6 1755   3.858   4.665  17.826
  115TMC2     C 1756   3.581   4.395  17.772
  115TMC2     O 1757   3.624   4.334  17.679
  115TMC2     H 1758   3.811   4.343  17.895
  115TMC2    H1 1759   3.527   4.628  17.763
  115TMC2    H2 1760   3.937   4.740  17.836
  115TMC2    C7 1761   3.688   0.028  17.791
  115TMC2    C8 1762   4.020   4.506  17.924
  115TMC2    O1 1763   3.565   0.038  17.797
  115TMC2    O2 1764   4.088   4.577  18.003
  115TMC2    O5 1765   4.047   4.381  17.879
  115TMC2    H5 1766   4.005   4.358  17.793
  116MPD2     C 1767   3.108   4.212  17.649
  116MPD2    C1 1768   3.238   4.171  17.611
  116MPD2    C2 1769   3.352   4.221  17.671
  116MPD2    C3 1770   3.337   4.324  17.762
  116MPD2    C4 1771   3.208   4.367  17.801
  116MPD2    C5 1772   3.101   4.309  17.745
  116MPD2     H 1773   3.450   4.184  17.644
  116MPD2    H1 1774   3.190   4.450  17.868
  116MPD2    H2 1775   3.026   4.178  17.586
  116MPD2    H3 1776   3.002   4.352  17.758
  116MPD2     N 1777   3.447   4.390  17.816
  116MPD2    H5 1778   3.420   4.445  17.897
  116MPD2    N1 1779   3.234   4.059  17.524
  116MPD2    H7 1780   3.143   4.040  17.482
  117TMC2    C1 1781   2.528   1.045  14.413
  117TMC2    C2 1782   2.643   0.970  14.404
  117TMC2    C3 1783   2.759   1.042  14.411
  117TMC2    C4 1784   2.522   1.177  14.454
  117TMC2    C5 1785   2.645   1.240  14.460
  117TMC2    C6 1786   2.766   1.175  14.440
  117TMC2     C 1787   2.406   0.975  14.420
  117TMC2     O 1788   2.392   0.893  14.512
  117TMC2     H 1789   2.653   0.862  14.398
  117TMC2    H1 1790   2.424   1.223  14.465
  117TMC2    H2 1791   2.850   1.241  14.422
  117TMC2    C7 1792   2.642   1.386  14.457
  117TMC2    C8 1793   2.881   0.968  14.390
  117TMC2    O1 1794   2.751   1.442  14.484
  117TMC2    O2 1795   2.873   0.872  14.314
  117TMC2    O5 1796   2.993   1.035  14.421
  117TMC2    H5 1797   2.987   1.109  14.486
  118MPD2     C 1798   2.389   1.594  14.291
  118MPD2    C1 1799   2.514   1.561  14.346
  118MPD2    C2 1800   2.612   1.663  14.349
  118MPD2    C3 1801   2.580   1.791  14.311
  118MPD2    C4 1802   2.449   1.819  14.280
  118MPD2    C5 1803   2.354   1.720  14.268
  118MPD2     H 1804   2.711   1.634  14.383
  118MPD2    H1 1805   2.425   1.924  14.269
  118MPD2    H2 1806   2.307   1.523  14.295
  118MPD2    H3 1807   2.251   1.739  14.240
  118MPD2     N 1808   2.674   1.898  14.309
  118MPD2    H5 1809   2.642   1.988  14.275
  118MPD2    N1 1810   2.532   1.428  14.386
  118MPD2    H7 1811   2.456   1.365  14.363
  119MPD2     C 1812   1.139   2.981  14.151
  119MPD2    C1 1813   1.003   2.949  14.149
  119MPD2    C2 1814   0.962   2.847  14.060
  119MPD2    C3 1815   1.051   2.783  13.973
  119MPD2    C4 1816   1.187   2.820  13.978
  119MPD2    C5 1817   1.225   2.916  14.068
  119MPD2     H 1818   0.855   2.835  14.041
  119MPD2    H1 1819   1.262   2.775  13.914
  119MPD2    H2 1820   1.184   3.066  14.203
  119MPD2    H3 1821   1.326   2.955  14.067
  119MPD2     N 1822   1.017   2.669  13.895
  119MPD2    H5 1823   1.085   2.634  13.828
  119MPD2    N1 1824   0.925   3.027  14.244
  119MPD2    H7 1825   0.968   3.114  14.272
  120TCq2    C1 1826   0.894   2.602  13.892
  120TCq2    O2 1827   0.790   2.637  13.949
  120TCq2    C2 1828   0.888   2.494  13.797
  120TCq2    C3 1829   0.996   2.454  13.722
  120TCq2    C4 1830   0.976   2.362  13.622
  120TCq2    C5 1831   0.858   2.293  13.605
  120TCq2    C6 1832   0.754   2.324  13.692
  120TCq2    C7 1833   0.765   2.432  13.781
  120TCq2    C8 1834   0.626   2.305  13.634
  120TCq2    O4 1835   0.624   2.288  13.509
  120TCq2    C9 1836   1.093   2.334  13.538
  120TCq2    O5 1837   1.170   2.419  13.490
  120TCq2    O6 1838   1.112   2.206  13.558
  120TCq2    H2 1839   1.100   2.482  13.732
  120TCq2    H3 1840   0.853   2.224  13.521
  120TCq2    H4 1841   0.677   2.465  13.835
  121TMC2    C1 1842   2.047   4.380  14.452
  121TMC2    C2 1843   2.048   4.255  14.499
  121TMC2    C3 1844   1.925   4.200  14.526
  121TMC2    C4 1845   1.936   4.456  14.434
  121TMC2    C5 1846   1.816   4.399  14.484
  121TMC2    C6 1847   1.808   4.264  14.517
  121TMC2     C 1848   2.180   4.426  14.416
  121TMC2     O 1849   2.269   4.364  14.471
  121TMC2     H 1850   2.135   4.192  14.515
  121TMC2    H1 1851   1.936   4.554  14.389
  121TMC2    H2 1852   1.711   4.224  14.545
  121TMC2    C7 1853   1.707   4.462  14.417
  121TMC2    C8 1854   1.935   4.055  14.565
  121TMC2    O1 1855   1.709   4.582  14.383
  121TMC2    O2 1856   2.036   3.995  14.599
  121TMC2    O5 1857   1.815   4.000  14.552
  121TMC2    H5 1858   1.744   4.046  14.502
  122MPD2     C 1859   2.425   4.568  14.329
  122MPD2    C1 1860   2.304   4.599  14.278
  122MPD2    C2 1861   2.286   4.710  14.192
  122MPD2    C3 1862   2.393   4.781  14.149
  122MPD2    C4 1863   2.506   4.762  14.215
  122MPD2    C5 1864   2.521   4.660  14.301
  122MPD2     H 1865   2.187   4.728  14.153
  122MPD2    H1 1866   2.598   0.008  14.189
  122MPD2    H2 1867   2.431   4.502  14.415
  122MPD2    H3 1868   2.613   4.644  14.355
  122MPD2     N 1869   2.398   0.068  14.041
  122MPD2    H5 1870   2.482   0.118  14.014
  122MPD2    N1 1871   2.186   4.526  14.320
  122MPD2    H7 1872   2.101   4.556  14.273
  123MPD2     C 1873   0.531   2.733  10.688
  123MPD2    C1 1874   0.508   2.680  10.560
  123MPD2    C2 1875   0.561   2.748  10.451
  123MPD2    C3 1876   0.627   2.868  10.465
  123MPD2    C4 1877   0.656   2.919  10.592
  123MPD2    C5 1878   0.609   2.846  10.701
  123MPD2     H 1879   0.534   2.711  10.353
  123MPD2    H1 1880   0.694   3.019  10.609
  123MPD2    H2 1881   0.483   2.698  10.778
  123MPD2    H3 1882   0.606   2.896  10.798
  123MPD2     N 1883   0.661   2.930  10.335
  123MPD2    H5 1884   0.644   2.881  10.248
  123MPD2    N1 1885   0.425   2.564  10.547
  123MPD2    H7 1886   0.383   2.537  10.635
  124TCq2    C1 1887   0.740   3.046  10.337
  124TCq2    O2 1888   0.819   3.097  10.418
  124TCq2    C2 1889   0.764   3.081  10.198
  124TCq2    C3 1890   0.889   3.127  10.167
  124TCq2    C4 1891   0.918   3.142  10.036
  124TCq2    C5 1892   0.836   3.109   9.928
  124TCq2    C6 1893   0.706   3.084   9.962
  124TCq2    C7 1894   0.672   3.060  10.094
  124TCq2    C8 1895   0.609   3.080   9.855
  124TCq2    O4 1896   0.625   3.176   9.780
  124TCq2    C9 1897   1.044   3.203  10.005
  124TCq2    O5 1898   1.081   3.219   9.889
  124TCq2    O6 1899   1.053   3.301  10.094
  124TCq2    H2 1900   0.964   3.130  10.246
  124TCq2    H3 1901   0.875   3.121   9.828
  124TCq2    H4 1902   0.568   3.050  10.125
  125TMC2    C1 1903   0.529   4.391   9.474
  125TMC2    C2 1904   0.621   4.288   9.462
  125TMC2    C3 1905   0.753   4.322   9.466
  125TMC2    C4 1906   0.564   4.517   9.497
  125TMC2    C5 1907   0.696   4.548   9.498
  125TMC2    C6 1908   0.787   4.452   9.497
  125TMC2     C 1909   0.396   4.367   9.514
  125TMC2     O 1910   0.341   4.445   9.589
  125TMC2     H 1911   0.587   4.186   9.452
  125TMC2    H1 1912   0.492   4.599   9.497
  125TMC2    H2 1913   0.892   4.479   9.500
  125TMC2    C7 1914   0.730   4.682   9.460
  125TMC2    C8 1915   0.850   4.214   9.464
  125TMC2    O1 1916   0.652   4.773   9.485
  125TMC2    O2 1917   0.831   4.115   9.389
  125TMC2    O5 1918   0.909   4.207   9.587
  125TMC2    H5 1919   0.882   4.287   9.637
  126MPD1     C 1920   4.752   4.146   9.392
  126MPD1    C1 1921   0.035   4.128   9.291
  126MPD1    C2 1922   0.167   4.149   9.316
  126MPD1    C3 1923   0.208   4.228   9.425
  126MPD1    C4 1924   0.113   4.255   9.529
  126MPD1    C5 1925   4.791   4.198   9.515
  126MPD1     H 1926   0.247   4.111   9.254
  126MPD1    H1 1927   0.138   4.308   9.621
  126MPD1    H2 1928   4.647   4.123   9.379
  126MPD1    H3 1929   4.722   4.201   9.599
  126MPD1     N 1930   0.336   4.277   9.419
  126MPD1    H5 1931   0.393   4.251   9.339
  126MPD1    N1 1932   0.002   4.051   9.179
  126MPD1    H6 1933   0.063   4.065   9.099
  126MPD1    H7 1934   4.707   4.056   9.158
  127MPD2     C 1935   2.133   3.663   9.687
  127MPD2    C1 1936   2.170   3.700   9.810
  127MPD2    C2 1937   2.243   3.819   9.824
  127MPD2    C3 1938   2.261   3.900   9.710
  127MPD2    C4 1939   2.231   3.849   9.589
  127MPD2    C5 1940   2.173   3.727   9.575
  127MPD2     H 1941   2.257   3.856   9.925
  127MPD2    H1 1942   2.255   3.906   9.500
  127MPD2    H2 1943   2.095   3.562   9.675
  127MPD2    H3 1944   2.141   3.680   9.483
  127MPD2     N 1945   2.302   4.037   9.732
  127MPD2    H5 1946   2.334   4.054   9.827
  127MPD2    N1 1947   2.138   3.613   9.919
  127MPD2    H7 1948   2.071   3.541   9.894
  128TCq2    C1 1949   2.178   3.625  10.049
  128TCq2    O2 1950   2.249   3.708  10.110
  128TCq2    C2 1951   2.124   3.515  10.132
  128TCq2    C3 1952   2.205   3.478  10.236
  128TCq2    C4 1953   2.167   3.368  10.303
  128TCq2    C5 1954   2.039   3.323  10.286
  128TCq2    C6 1955   1.962   3.367  10.190
  128TCq2    C7 1956   2.005   3.460  10.105
  128TCq2    C8 1957   1.840   3.296  10.162
  128TCq2    O4 1958   1.764   3.342  10.076
  128TCq2    C9 1959   2.243   3.343  10.425
  128TCq2    O5 1960   2.344   3.401  10.447
  128TCq2    O6 1961   2.214   3.226  10.480
  128TCq2    H2 1962   2.297   3.532  10.255
  128TCq2    H3 1963   1.991   3.261  10.361
  128TCq2    H4 1964   1.942   3.503  10.028
  129MPD2     C 1965   0.658   4.218  19.115
  129MPD2    C1 1966   0.688   4.210  19.252
  129MPD2    C2 1967   0.821   4.254  19.286
  129MPD2    C3 1968   0.911   4.295  19.190
  129MPD2    C4 1969   0.877   4.294  19.055
  129MPD2    C5 1970   0.744   4.269  19.019
  129MPD2     H 1971   0.848   4.254  19.391
  129MPD2    H1 1972   0.948   4.330  18.981
  129MPD2    H2 1973   0.563   4.184  19.078
  129MPD2    H3 1974   0.709   4.262  18.917
  129MPD2     N 1975   1.041   4.342  19.230
  129MPD2    H5 1976   1.060   4.357  19.328
  129MPD2    N1 1977   0.589   4.173  19.348
  129MPD2    H7 1978   0.616   4.155  19.444
  130TCq2    C1 1979   0.457   4.201  19.334
  130TCq2    O2 1980   0.403   4.270  19.252
  130TCq2    C2 1981   0.390   4.144  19.447
  130TCq2    C3 1982   0.317   4.221  19.529
  130TCq2    C4 1983   0.286   4.177  19.657
  130TCq2    C5 1984   0.314   4.052  19.702
  130TCq2    C6 1985   0.371   3.966  19.607
  130TCq2    C7 1986   0.412   4.013  19.481
  130TCq2    C8 1987   0.352   3.819  19.622
  130TCq2    O4 1988   0.367   3.751  19.522
  130TCq2    C9 1989   0.253   4.293  19.745
  130TCq2    O5 1990   0.317   4.400  19.722
  130TCq2    O6 1991   0.246   4.244  19.871
  130TCq2    H2 1992   0.302   4.323  19.496
  130TCq2    H3 1993   0.292   4.019  19.803
  130TCq2    H4 1994   0.459   3.941  19.415
  131MPD2     C 1995   0.074   2.931  10.049
  131MPD2    C1 1996   0.156   2.929  10.155
  131MPD2    C2 1997   0.172   2.811  10.227
  131MPD2    C3 1998   0.100   2.697  10.198
  131MPD2    C4 1999   0.011   2.703  10.094
  131MPD2    C5 2000   4.801   2.822  10.025
  131MPD2     H 2001   0.240   2.811  10.311
  131MPD2    H1 2002   4.756   2.617  10.067
  131MPD2    H2 2003   0.063   3.021   9.990
  131MPD2    H3 2004   4.720   2.812   9.953
  131MPD2     N 2005   0.123   2.578  10.271
  131MPD2    H5 2006   0.211   2.562  10.319
  131MPD2    N1 2007   0.221   3.052  10.186
  131MPD2    H7 2008   0.187   3.134  10.137
  132TCq2    C1 2009   0.554   3.431  10.154
  132TCq2    O2 2010   0.576   3.355  10.061
  132TCq2    C2 2011   0.450   3.394  10.249
  132TCq2    C3 2012   0.421   3.473  10.359
  132TCq2    C4 2013   0.343   3.412  10.452
  132TCq2    C5 2014   0.301   3.279  10.444
  132TCq2    C6 2015   0.310   3.217  10.322
  132TCq2    C7 2016   0.380   3.275  10.225
  132TCq2    C8 2017   0.283   3.083  10.311
  132TCq2    O4 2018   0.316   3.016  10.407
  132TCq2    C9 2019   0.338   3.482  10.580
  132TCq2    O5 2020   0.387   3.593  10.611
  132TCq2    O6 2021   0.233   3.437  10.645
  132TCq2    H2 2022   0.488   3.551  10.394
  132TCq2    H3 2023   0.258   3.223  10.526
  132TCq2    H4 2024   0.388   3.223  10.131
  133MPD2     C 2025   4.125   4.512   9.244
  133MPD2    C1 2026   4.226   4.433   9.296
  133MPD2    C2 2027   4.201   4.316   9.370
  133MPD2    C3 2028   4.070   4.272   9.392
  133MPD2    C4 2029   3.971   4.360   9.347
  133MPD2    C5 2030   4.001   4.479   9.282
  133MPD2     H 2031   4.281   4.253   9.407
  133MPD2    H1 2032   3.869   4.345   9.382
  133MPD2    H2 2033   4.147   4.602   9.187
  133MPD2    H3 2034   3.917   4.542   9.257
  133MPD2     N 2035   4.036   4.147   9.459
  133MPD2    H5 2036   3.939   4.138   9.488
  133MPD2    N1 2037   4.357   4.468   9.261
  133MPD2    H7 2038   4.357   4.539   9.189
  134TCq2    C1 2039   4.474   4.425   9.319
  134TCq2    O2 2040   4.489   4.369   9.425
  134TCq2    C2 2041   4.594   4.479   9.261
  134TCq2    C3 2042   4.698   4.510   9.353
  134TCq2    C4 2043   0.011   4.554   9.299
  134TCq2    C5 2044   0.024   4.589   9.162
  134TCq2    C6 2045   4.719   4.563   9.086
  134TCq2    C7 2046   4.599   4.512   9.129
  134TCq2    C8 2047   4.749   4.557   8.937
  134TCq2    O4 2048   0.057   4.534   8.904
  134TCq2    C9 2049   0.132   4.570   9.379
  134TCq2    O5 2050   0.234   4.615   9.325
  134TCq2    O6 2051   0.102   4.595   9.507
  134TCq2    H2 2052   4.693   4.470   9.453
  134TCq2    H3 2053   0.109   4.639   9.118
  134TCq2    H4 2054   4.520   4.480   9.062
  135MPD2     C 2055   2.139   0.956   9.995
  135MPD2    C1 2056   2.031   0.877   9.960
  135MPD2    C2 2057   2.040   0.790   9.855
  135MPD2    C3 2058   2.155   0.777   9.785
  135MPD2    C4 2059   2.265   0.843   9.827
  135MPD2    C5 2060   2.253   0.935   9.923
  135MPD2     H 2061   1.958   0.722   9.836
  135MPD2    H1 2062   2.363   0.834   9.780
  135MPD2    H2 2063   2.158   1.032  10.070
  135MPD2    H3 2064   2.341   0.994   9.944
  135MPD2     N 2065   2.174   0.699   9.668
  135MPD2    H5 2066   2.264   0.699   9.621
  135MPD2    N1 2067   1.907   0.873  10.027
  135MPD2    H7 2068   1.838   0.807   9.993
  136TCq2    C1 2069   1.869   0.945  10.141
  136TCq2    O2 2070   1.921   1.036  10.203
  136TCq2    C2 2071   1.746   0.895  10.193
  136TCq2    C3 2072   1.665   0.994  10.246
  136TCq2    C4 2073   1.545   0.944  10.299
  136TCq2    C5 2074   1.512   0.810  10.297
  136TCq2    C6 2075   1.589   0.724  10.221
  136TCq2    C7 2076   1.711   0.762  10.172
  136TCq2    C8 2077   1.564   0.584  10.216
  136TCq2    O4 2078   1.624   0.515  10.133
  136TCq2    C9 2079   1.445   1.037  10.335
  136TCq2    O5 2080   1.367   1.012  10.425
  136TCq2    O6 2081   1.442   1.145  10.251
  136TCq2    H2 2082   1.702   1.096  10.251
  136TCq2    H3 2083   1.411   0.778  10.320
  136TCq2    H4 2084   1.782   0.688  10.137
  137MPD2     C 2085   1.533   3.912   9.706
  137MPD2    C1 2086   1.553   4.026   9.783
  137MPD2    C2 2087   1.548   4.004   9.925
  137MPD2    C3 2088   1.519   3.883   9.983
  137MPD2    C4 2089   1.484   3.783   9.903
  137MPD2    C5 2090   1.484   3.800   9.769
  137MPD2     H 2091   1.581   4.089   9.983
  137MPD2    H1 2092   1.464   3.683   9.939
  137MPD2    H2 2093   1.540   3.915   9.598
  137MPD2    H3 2094   1.467   3.706   9.718
  137MPD2     N 2095   1.525   3.881  10.121
  137MPD2    H5 2096   1.570   3.961  10.166
  137MPD2    N1 2097   1.589   4.148   9.724
  137MPD2    H7 2098   1.579   4.151   9.623
  138TCq2    C1 2099   1.600   4.266   9.783
  138TCq2    O2 2100   1.591   4.298   9.901
  138TCq2    C2 2101   1.592   4.373   9.682
  138TCq2    C3 2102   1.661   4.351   9.565
  138TCq2    C4 2103   1.638   4.430   9.464
  138TCq2    C5 2104   1.542   4.527   9.472
  138TCq2    C6 2105   1.471   4.543   9.588
  138TCq2    C7 2106   1.488   4.456   9.689
  138TCq2    C8 2107   1.380   4.649   9.606
  138TCq2    O4 2108   1.402   4.757   9.550
  138TCq2    C9 2109   1.722   4.430   9.344
  138TCq2    O5 2110   1.680   4.464   9.235
  138TCq2    O6 2111   1.853   4.441   9.384
  138TCq2    H2 2112   1.748   4.285   9.561
  138TCq2    H3 2113   1.514   4.596   9.393
  138TCq2    H4 2114   1.450   4.477   9.789
  139TMC2    C1 2115   2.331   2.148  13.730
  139TMC2    C2 2116   2.407   2.212  13.634
  139TMC2    C3 2117   2.358   2.330  13.596
  139TMC2    C4 2118   2.220   2.191  13.787
  139TMC2    C5 2119   2.187   2.319  13.754
  139TMC2    C6 2120   2.248   2.381  13.652
  139TMC2     C 2121   2.371   2.015  13.750
  139TMC2     O 2122   2.459   1.977  13.677
  139TMC2     H 2123   2.495   2.171  13.586
  139TMC2    H1 2124   2.168   2.127  13.857
  139TMC2    H2 2125   2.233   2.488  13.644
  139TMC2    C7 2126   2.091   2.388  13.839
  139TMC2    C8 2127   2.433   2.403  13.500
  139TMC2    O1 2128   2.056   2.505  13.810
  139TMC2    O2 2129   2.555   2.382  13.481
  139TMC2    O5 2130   2.356   2.502  13.454
  139TMC2    H5 2131   2.412   2.569  13.410
  140MPD2     C 2132   2.207   1.718  13.890
  140MPD2    C1 2133   2.309   1.789  13.843
  140MPD2    C2 2134   2.433   1.733  13.830
  140MPD2    C3 2135   2.458   1.600  13.874
  140MPD2    C4 2136   2.355   1.528  13.931
  140MPD2    C5 2137   2.230   1.586  13.941
  140MPD2     H 2138   2.513   1.799  13.800
  140MPD2    H1 2139   2.355   1.426  13.966
  140MPD2    H2 2140   2.112   1.771  13.895
  140MPD2    H3 2141   2.147   1.521  13.966
  140MPD2     N 2142   2.577   1.537  13.832
  140MPD2    H5 2143   2.621   1.571  13.747
  140MPD2    N1 2144   2.280   1.928  13.809
  140MPD2    H7 2145   2.187   1.959  13.833
  141TCq2    C1 2146   2.495   3.400  14.667
  141TCq2    O2 2147   2.465   3.516  14.646
  141TCq2    C2 2148   2.460   3.352  14.798
  141TCq2    C3 2149   2.466   3.218  14.821
  141TCq2    C4 2150   2.457   3.174  14.950
  141TCq2    C5 2151   2.441   3.263  15.053
  141TCq2    C6 2152   2.423   3.400  15.024
  141TCq2    C7 2153   2.431   3.447  14.893
  141TCq2    C8 2154   2.469   3.475  15.137
  141TCq2    O4 2155   2.497   3.418  15.244
  141TCq2    C9 2156   2.460   3.036  14.986
  141TCq2    O5 2157   2.406   3.015  15.095
  141TCq2    O6 2158   2.581   2.988  14.945
  141TCq2    H2 2159   2.477   3.147  14.740
  141TCq2    H3 2160   2.417   3.237  15.156
  141TCq2    H4 2161   2.427   3.553  14.869
  142MPD2     C 2162   0.496   2.111  10.928
  142MPD2    C1 2163   0.471   2.085  10.794
  142MPD2    C2 2164   0.541   2.163  10.708
  142MPD2    C3 2165   0.643   2.261  10.754
  142MPD2    C4 2166   0.661   2.278  10.884
  142MPD2    C5 2167   0.580   2.209  10.973
  142MPD2     H 2168   0.524   2.140  10.603
  142MPD2    H1 2169   0.732   2.352  10.918
  142MPD2    H2 2170   0.437   2.057  11.001
  142MPD2    H3 2171   0.601   2.218  11.079
  142MPD2     N 2172   0.716   2.354  10.675
  142MPD2    H5 2173   0.786   2.411  10.721
  142MPD2    N1 2174   0.383   1.978  10.768
  142MPD2    H7 2175   0.362   1.920  10.848
  143TCq2    C1 2176   0.728   2.341  10.532
  143TCq2    O2 2177   0.662   2.272  10.454
  143TCq2    C2 2178   0.824   2.437  10.467
  143TCq2    C3 2179   0.912   2.504  10.538
  143TCq2    C4 2180   0.964   2.615  10.480
  143TCq2    C5 2181   0.946   2.657  10.352
  143TCq2    C6 2182   0.857   2.584  10.281
  143TCq2    C7 2183   0.792   2.477  10.339
  143TCq2    C8 2184   0.805   2.646  10.154
  143TCq2    O4 2185   0.866   2.736  10.103
  143TCq2    C9 2186   1.044   2.711  10.553
  143TCq2    O5 2187   1.125   2.786  10.498
  143TCq2    O6 2188   0.969   2.750  10.655
  143TCq2    H2 2189   0.938   2.486  10.642
  143TCq2    H3 2190   0.999   2.732  10.294
  143TCq2    H4 2191   0.722   2.422  10.277
  144MPD2     C 2192   3.127   1.514  18.524
  144MPD2    C1 2193   3.143   1.377  18.526
  144MPD2    C2 2194   3.238   1.330  18.612
  144MPD2    C3 2195   3.309   1.422  18.692
  144MPD2    C4 2196   3.295   1.560  18.686
  144MPD2    C5 2197   3.194   1.607  18.606
  144MPD2     H 2198   3.255   1.223  18.619
  144MPD2    H1 2199   3.348   1.634  18.745
  144MPD2    H2 2200   3.055   1.555  18.454
  144MPD2    H3 2201   3.179   1.714  18.612
  144MPD2     N 2202   3.419   1.387  18.784
  144MPD2    H5 2203   3.468   1.461  18.832
  144MPD2    N1 2204   3.072   1.289  18.436
  144MPD2    H7 2205   3.081   1.190  18.452
  145TCq2    C1 2206   3.476   1.259  18.799
  145TCq2    O2 2207   3.453   1.156  18.737
  145TCq2    C2 2208   3.593   1.277  18.882
  145TCq2    C3 2209   3.700   1.201  18.851
  145TCq2    C4 2210   3.806   1.192  18.938
  145TCq2    C5 2211   3.810   1.268  19.051
  145TCq2    C6 2212   3.697   1.339  19.085
  145TCq2    C7 2213   3.588   1.349  19.001
  145TCq2    C8 2214   3.734   1.444  19.182
  145TCq2    O4 2215   3.852   1.471  19.186
  145TCq2    C9 2216   3.897   1.072  18.938
  145TCq2    O5 2217   3.952   1.039  19.042
  145TCq2    O6 2218   3.827   0.983  18.858
  145TCq2    H2 2219   3.675   1.130  18.774
  145TCq2    H3 2220   3.902   1.271  19.110
  145TCq2    H4 2221   3.496   1.389  19.043
  146TMC2    C1 2222   4.339   4.560  12.377
  146TMC2    C2 2223   4.225   4.515  12.323
  146TMC2    C3 2224   4.236   4.448  12.200
  146TMC2    C4 2225   4.464   4.522  12.335
  146TMC2    C5 2226   4.464   4.440  12.219
  146TMC2    C6 2227   4.353   4.407  12.146
  146TMC2     C 2228   4.335   4.633  12.502
  146TMC2     O 2229   4.237   4.702  12.516
  146TMC2     H 2230   4.132   4.545  12.369
  146TMC2    H1 2231   4.550   4.577  12.373
  146TMC2    H2 2232   4.369   4.382  12.041
  146TMC2    C7 2233   4.597   4.395  12.176
  146TMC2    C8 2234   4.110   4.428  12.134
  146TMC2    O1 2235   4.610   4.343  12.070
  146TMC2    O2 2236   4.013   4.463  12.202
  146TMC2    O5 2237   4.109   4.415  11.999
  146TMC2    H5 2238   4.195   4.417  11.950
  147MPD2     C 2239   0.301   4.394  12.280
  147MPD2    C1 2240   0.228   4.418  12.394
  147MPD2    C2 2241   0.092   4.429  12.379
  147MPD2    C3 2242   0.021   4.411  12.264
  147MPD2    C4 2243   0.090   4.392  12.151
  147MPD2    C5 2244   0.230   4.378  12.164
  147MPD2     H 2245   0.028   4.459  12.462
  147MPD2    H1 2246   0.044   4.383  12.054
  147MPD2    H2 2247   0.408   4.381  12.293
  147MPD2    H3 2248   0.291   4.347  12.079
  147MPD2     N 2249   4.685   4.424  12.271
  147MPD2    H5 2250   4.646   4.447  12.362
  147MPD2    N1 2251   0.291   4.410  12.519
  147MPD2    H7 2252   0.390   4.393  12.505
  148MPD2     C 2253   4.151   3.474  10.891
  148MPD2    C1 2254   4.252   3.378  10.876
  148MPD2    C2 2255   4.241   3.299  10.759
  148MPD2    C3 2256   4.131   3.315  10.672
  148MPD2    C4 2257   4.039   3.411  10.695
  148MPD2    C5 2258   4.046   3.488  10.802
  148MPD2     H 2259   4.317   3.228  10.727
  148MPD2    H1 2260   3.962   3.431  10.622
  148MPD2    H2 2261   4.153   3.540  10.977
  148MPD2    H3 2262   3.972   3.566  10.810
  148MPD2     N 2263   4.113   3.235  10.555
  148MPD2    H5 2264   4.032   3.266  10.503
  148MPD2    N1 2265   4.366   3.369  10.965
  148MPD2    H7 2266   4.447   3.313  10.939
  149TCq2    C1 2267   4.409   3.461  11.059
  149TCq2    O2 2268   4.355   3.566  11.088
  149TCq2    C2 2269   4.551   3.435  11.096
  149TCq2    C3 2270   4.611   3.536  11.159
  149TCq2    C4 2271   4.747   3.529  11.190
  149TCq2    C5 2272   0.014   3.416  11.165
  149TCq2    C6 2273   4.746   3.310  11.114
  149TCq2    C7 2274   4.611   3.320  11.083
  149TCq2    C8 2275   0.012   3.208  11.041
  149TCq2    O4 2276   4.752   3.115  10.992
  149TCq2    C9 2277   0.006   3.632  11.255
  149TCq2    O5 2278   0.130   3.633  11.278
  149TCq2    O6 2279   4.723   3.706  11.324
  149TCq2    H2 2280   4.556   3.628  11.178
  149TCq2    H3 2281   0.114   3.397  11.202
  149TCq2    H4 2282   4.564   3.232  11.041
  150MPD2     C 2283   1.146   2.382  12.555
  150MPD2    C1 2284   1.187   2.419  12.433
  150MPD2    C2 2285   1.316   2.459  12.404
  150MPD2    C3 2286   1.404   2.485  12.511
  150MPD2    C4 2287   1.360   2.467  12.640
  150MPD2    C5 2288   1.230   2.417  12.655
  150MPD2     H 2289   1.348   2.482  12.303
  150MPD2    H1 2290   1.426   2.491  12.723
  150MPD2    H2 2291   1.048   2.344  12.580
  150MPD2    H3 2292   1.196   2.401  12.757
  150MPD2     N 2293   1.535   2.518  12.480
  150MPD2    H5 2294   1.551   2.545  12.383
  150MPD2    N1 2295   1.085   2.399  12.329
  150MPD2    H7 2296   0.997   2.355  12.356
  151TCq2    C1 2297   1.639   2.523  12.566
  151TCq2    O2 2298   1.649   2.498  12.684
  151TCq2    C2 2299   1.769   2.535  12.503
  151TCq2    C3 2300   1.791   2.481  12.381
  151TCq2    C4 2301   1.902   2.521  12.314
  151TCq2    C5 2302   1.998   2.598  12.375
  151TCq2    C6 2303   1.969   2.645  12.503
  151TCq2    C7 2304   1.855   2.615  12.570
  151TCq2    C8 2305   2.064   2.728  12.566
  151TCq2    O4 2306   2.079   2.836  12.513
  151TCq2    C9 2307   1.924   2.462  12.180
  151TCq2    O5 2308   1.852   2.377  12.129
  151TCq2    O6 2309   1.981   2.559  12.102
  151TCq2    H2 2310   1.715   2.421  12.331
  151TCq2    H3 2311   2.094   2.616  12.329
  151TCq2    H4 2312   1.841   2.653  12.670
  152MPD2     C 2313   1.401   1.975  13.275
  152MPD2    C1 2314   1.431   2.108  13.262
  152MPD2    C2 2315   1.331   2.195  13.231
  152MPD2    C3 2316   1.201   2.154  13.208
  152MPD2    C4 2317   1.174   2.018  13.229
  152MPD2    C5 2318   1.272   1.929  13.268
  152MPD2     H 2319   1.347   2.302  13.230
  152MPD2    H1 2320   1.075   1.981  13.203
  152MPD2    H2 2321   1.480   1.901  13.281
  152MPD2    H3 2322   1.244   1.826  13.288
  152MPD2     N 2323   1.109   2.254  13.163
  152MPD2    H5 2324   1.138   2.351  13.170
  152MPD2    N1 2325   1.577   2.145  13.261
  152MPD2    H7 2326   1.645   2.069  13.263
  153TCq2    C1 2327   1.626   2.273  13.248
  153TCq2    O2 2328   1.562   2.377  13.276
  153TCq2    C2 2329   1.767   2.291  13.214
  153TCq2    C3 2330   1.846   2.184  13.182
  153TCq2    C4 2331   1.961   2.199  13.110
  153TCq2    C5 2332   2.002   2.327  13.066
  153TCq2    C6 2333   1.909   2.426  13.094
  153TCq2    C7 2334   1.795   2.416  13.167
  153TCq2    C8 2335   1.944   2.566  13.057
  153TCq2    O4 2336   1.847   2.631  13.023
  153TCq2    C9 2337   2.064   2.101  13.081
  153TCq2    O5 2338   2.185   2.126  13.080
  153TCq2    O6 2339   2.010   1.979  13.084
  153TCq2    H2 2340   1.829   2.080  13.207
  153TCq2    H3 2341   2.091   2.336  13.006
  153TCq2    H4 2342   1.726   2.497  13.186
  154MPD2     C 2343   3.023   2.142  17.927
  154MPD2    C1 2344   3.048   2.161  18.060
  154MPD2    C2 2345   2.973   2.253  18.138
  154MPD2    C3 2346   2.853   2.300  18.085
  154MPD2    C4 2347   2.828   2.276  17.951
  154MPD2    C5 2348   2.914   2.206  17.871
  154MPD2     H 2349   2.999   2.275  18.240
  154MPD2    H1 2350   2.741   2.316  17.901
  154MPD2    H2 2351   3.093   2.094  17.859
  154MPD2    H3 2352   2.899   2.203  17.764
  154MPD2     N 2353   2.768   2.378  18.170
  154MPD2    H5 2354   2.788   2.392  18.269
  154MPD2    N1 2355   3.154   2.085  18.112
  154MPD2    H7 2356   3.215   2.036  18.049
  155TCq2    C1 2357   3.167   2.064  18.253
  155TCq2    O2 2358   3.078   2.077  18.336
  155TCq2    C2 2359   3.297   2.009  18.286
  155TCq2    C3 2360   3.309   1.948  18.406
  155TCq2    C4 2361   3.440   1.933  18.461
  155TCq2    C5 2362   3.550   1.994  18.406
  155TCq2    C6 2363   3.530   2.065  18.288
  155TCq2    C7 2364   3.403   2.072  18.224
  155TCq2    C8 2365   3.645   2.097  18.202
  155TCq2    O4 2366   3.741   2.023  18.217
  155TCq2    C9 2367   3.461   1.902  18.602
  155TCq2    O5 2368   3.369   1.906  18.683
  155TCq2    O6 2369   3.565   1.821  18.625
  155TCq2    H2 2370   3.214   1.912  18.445
  155TCq2    H3 2371   3.651   2.001  18.446
  155TCq2    H4 2372   3.390   2.117  18.126
  156MPD2     C 2373   2.162   0.230  12.198
  156MPD2    C1 2374   2.065   0.327  12.190
  156MPD2    C2 2375   2.058   0.432  12.285
  156MPD2    C3 2376   2.128   0.423  12.405
  156MPD2    C4 2377   2.220   0.321  12.421
  156MPD2    C5 2378   2.236   0.229  12.314
  156MPD2     H 2379   1.990   0.516  12.282
  156MPD2    H1 2380   2.289   0.312  12.505
  156MPD2    H2 2381   2.180   0.149  12.129
  156MPD2    H3 2382   2.312   0.156  12.336
  156MPD2     N 2383   2.103   0.517  12.505
  156MPD2    H5 2384   2.041   0.594  12.478
  156MPD2    N1 2385   1.987   0.320  12.074
  156MPD2    H7 2386   2.016   0.248  12.008
  157TCq2    C1 2387   1.877   0.393  12.044
  157TCq2    O2 2388   1.828   0.483  12.113
  157TCq2    C2 2389   1.831   0.386  11.909
  157TCq2    C3 2390   1.865   0.291  11.810
  157TCq2    C4 2391   1.831   0.305  11.679
  157TCq2    C5 2392   1.778   0.425  11.637
  157TCq2    C6 2393   1.748   0.518  11.732
  157TCq2    C7 2394   1.770   0.500  11.867
  157TCq2    C8 2395   1.679   0.634  11.681
  157TCq2    O4 2396   1.694   0.677  11.565
  157TCq2    C9 2397   1.851   0.191  11.592
  157TCq2    O5 2398   1.910   0.092  11.635
  157TCq2    O6 2399   1.733   0.176  11.523
  157TCq2    H2 2400   1.915   0.199  11.840
  157TCq2    H3 2401   1.749   0.443  11.534
  157TCq2    H4 2402   1.735   0.573  11.939
  158TMC2    C1 2403   2.253   3.528  13.748
  158TMC2    C2 2404   2.295   3.636  13.674
  158TMC2    C3 2405   2.205   3.727  13.637
  158TMC2    C4 2406   2.118   3.501  13.770
  158TMC2    C5 2407   2.029   3.600  13.721
  158TMC2    C6 2408   2.069   3.710  13.663
  158TMC2     C 2409   2.356   3.431  13.767
  158TMC2     O 2410   2.439   3.425  13.678
  158TMC2     H 2411   2.402   3.646  13.655
  158TMC2    H1 2412   2.092   3.408  13.818
  158TMC2    H2 2413   1.996   3.786  13.638
  158TMC2    C7 2414   1.899   3.612  13.788
  158TMC2    C8 2415   2.245   3.867  13.616
  158TMC2    O1 2416   1.824   3.704  13.758
  158TMC2    O2 2417   2.180   3.965  13.659
  158TMC2    O5 2418   2.367   3.863  13.562
  158TMC2    H5 2419   2.391   3.783  13.511
  159MPD2     C 2420   2.150   3.333  14.244
  159MPD2    C1 2421   2.219   3.224  14.194
  159MPD2    C2 2422   2.285   3.228  14.069
  159MPD2    C3 2423   2.280   3.344  13.995
  159MPD2    C4 2424   2.213   3.451  14.052
  159MPD2    C5 2425   2.144   3.452  14.175
  159MPD2     H 2426   2.331   3.141  14.022
  159MPD2    H1 2427   2.212   3.543  13.995
  159MPD2    H2 2428   2.088   3.326  14.333
  159MPD2    H3 2429   2.094   3.536  14.220
  159MPD2     N 2430   2.338   3.333  13.867
  159MPD2    H5 2431   2.402   3.256  13.854
  159MPD2    N1 2432   2.216   3.108  14.269
  159MPD2    H7 2433   2.160   3.113  14.353
  160TMC2    C1 2434   2.052   1.858  19.589
  160TMC2    C2 2435   1.984   1.780  19.677
  160TMC2    C3 2436   1.940   1.663  19.627
  160TMC2    C4 2437   2.071   1.832  19.455
  160TMC2    C5 2438   2.024   1.712  19.411
  160TMC2    C6 2439   1.961   1.620  19.495
  160TMC2     C 2440   2.074   1.985  19.641
  160TMC2     O 2441   2.125   1.985  19.755
  160TMC2     H 2442   1.973   1.811  19.781
  160TMC2    H1 2443   2.131   1.905  19.403
  160TMC2    H2 2444   1.908   1.533  19.459
  160TMC2    C7 2445   2.031   1.678  19.274
  160TMC2    C8 2446   1.903   1.569  19.725
  160TMC2    O1 2447   2.029   1.562  19.241
  160TMC2    O2 2448   1.939   1.454  19.711
  160TMC2    O5 2449   1.826   1.617  19.827
  160TMC2    H5 2450   1.797   1.707  19.799
  161MPD2     C 2451   2.075   2.269  19.718
  161MPD2    C1 2452   1.994   2.215  19.621
  161MPD2    C2 2453   1.889   2.290  19.566
  161MPD2    C3 2454   1.872   2.415  19.609
  161MPD2    C4 2455   1.961   2.474  19.697
  161MPD2    C5 2456   2.059   2.401  19.754
  161MPD2     H 2457   1.825   2.249  19.489
  161MPD2    H1 2458   1.937   2.569  19.745
  161MPD2    H2 2459   2.139   2.203  19.776
  161MPD2    H3 2460   2.120   2.435  19.836
  161MPD2     N 2461   1.761   2.506  19.574
  161MPD2    H5 2462   1.770   2.604  19.598
  161MPD2    N1 2463   2.017   2.082  19.573
  161MPD2    H7 2464   1.953   2.054  19.500
  162TMC2    C1 2465   4.423   3.955  18.788
  162TMC2    C2 2466   4.437   4.066  18.711
  162TMC2    C3 2467   4.551   4.086  18.654
  162TMC2    C4 2468   4.529   3.879  18.826
  162TMC2    C5 2469   4.649   3.897  18.750
  162TMC2    C6 2470   4.653   3.994  18.655
  162TMC2     C 2471   4.314   3.865  18.741
  162TMC2     O 2472   4.327   3.748  18.774
  162TMC2     H 2473   4.356   4.136  18.698
  162TMC2    H1 2474   4.507   3.798  18.895
  162TMC2    H2 2475   4.752   4.018  18.619
  162TMC2    C7 2476   4.769   3.828  18.781
  162TMC2    C8 2477   4.589   4.215  18.596
  162TMC2    O1 2478   0.051   3.849  18.699
  162TMC2    O2 2479   4.524   4.315  18.623
  162TMC2    O5 2480   4.645   4.185  18.477
  162TMC2    H5 2481   4.667   4.094  18.448
  163MPD2     C 2482   4.102   3.770  18.281
  163MPD2    C1 2483   4.196   3.700  18.353
  163MPD2    C2 2484   4.222   3.737  18.486
  163MPD2    C3 2485   4.179   3.855  18.538
  163MPD2    C4 2486   4.084   3.923  18.466
  163MPD2    C5 2487   4.038   3.875  18.346
  163MPD2     H 2488   4.299   3.689  18.545
  163MPD2    H1 2489   4.036   4.014  18.500
  163MPD2    H2 2490   4.071   3.748  18.180
  163MPD2    H3 2491   3.948   3.925  18.314
  163MPD2     N 2492   4.220   3.917  18.657
  163MPD2    H5 2493   4.180   4.009  18.674
  163MPD2    N1 2494   4.254   3.583  18.294
  163MPD2    H7 2495   4.238   3.553  18.198
  164TCq2    C1 2496   0.318   3.135  11.301
  164TCq2    O2 2497   0.225   3.062  11.277
  164TCq2    C2 2498   0.301   3.255  11.387
  164TCq2    C3 2499   0.395   3.352  11.400
  164TCq2    C4 2500   0.369   3.463  11.476
  164TCq2    C5 2501   0.247   3.480  11.537
  164TCq2    C6 2502   0.155   3.381  11.526
  164TCq2    C7 2503   0.177   3.272  11.445
  164TCq2    C8 2504   0.017   3.412  11.560
  164TCq2    O4 2505   4.731   3.385  11.483
  164TCq2    C9 2506   0.444   3.586  11.456
  164TCq2    O5 2507   0.496   3.626  11.352
  164TCq2    O6 2508   0.490   3.609  11.578
  164TCq2    H2 2509   0.487   3.350  11.343
  164TCq2    H3 2510   0.224   3.575  11.584
  164TCq2    H4 2511   0.102   3.194  11.438
  165MPD2     C 2512   0.754   0.566  19.060
  165MPD2    C1 2513   0.800   0.664  19.153
  165MPD2    C2 2514   0.940   0.681  19.157
  165MPD2    C3 2515   1.029   0.605  19.076
  165MPD2    C4 2516   0.978   0.510  18.990
  165MPD2    C5 2517   0.841   0.489  18.981
  165MPD2     H 2518   0.981   0.758  19.221
  165MPD2    H1 2519   1.039   0.460  18.916
  165MPD2    H2 2520   0.647   0.550  19.058
  165MPD2    H3 2521   0.803   0.411  18.916
  165MPD2     N 2522   1.168   0.611  19.094
  165MPD2    H5 2523   1.231   0.550  19.042
  165MPD2    N1 2524   0.700   0.735  19.223
  165MPD2    H7 2525   0.610   0.735  19.175
  166TCq2    C1 2526   1.232   0.698  19.187
  166TCq2    O2 2527   1.194   0.783  19.260
  166TCq2    C2 2528   1.359   0.636  19.222
  166TCq2    C3 2529   1.360   0.499  19.235
  166TCq2    C4 2530   1.461   0.443  19.313
  166TCq2    C5 2531   1.546   0.525  19.377
  166TCq2    C6 2532   1.524   0.658  19.379
  166TCq2    C7 2533   1.433   0.716  19.298
  166TCq2    C8 2534   1.639   0.731  19.425
  166TCq2    O4 2535   1.739   0.668  19.452
  166TCq2    C9 2536   1.464   0.299  19.332
  166TCq2    O5 2537   1.486   0.224  19.237
  166TCq2    O6 2538   1.511   0.288  19.462
  166TCq2    H2 2539   1.282   0.436  19.194
  166TCq2    H3 2540   1.627   0.484  19.436
  166TCq2    H4 2541   1.436   0.823  19.279
  167TMC2    C1 2542   4.547   3.249  12.996
  167TMC2    C2 2543   4.471   3.264  13.106
  167TMC2    C3 2544   4.431   3.160  13.189
  167TMC2    C4 2545   4.573   3.125  12.953
  167TMC2    C5 2546   4.537   3.019  13.038
  167TMC2    C6 2547   4.460   3.036  13.151
  167TMC2     C 2548   4.589   3.369  12.921
  167TMC2     O 2549   4.530   3.478  12.941
  167TMC2     H 2550   4.464   3.364  13.147
  167TMC2    H1 2551   4.623   3.102  12.860
  167TMC2    H2 2552   4.428   2.954  13.214
  167TMC2    C7 2553   4.570   2.881  13.006
  167TMC2    C8 2554   4.428   3.181  13.331
  167TMC2    O1 2555   4.553   2.806  13.104
  167TMC2    O2 2556   4.478   3.110  13.415
  167TMC2    O5 2557   4.344   3.286  13.357
  167TMC2    H5 2558   4.302   3.314  13.273
  168MPD2     C 2559   4.722   3.577  12.757
  168MPD2    C1 2560   4.734   3.440  12.740
  168MPD2    C2 2561   0.006   3.391  12.634
  168MPD2    C3 2562   0.034   3.478  12.534
  168MPD2    C4 2563   0.008   3.610  12.535
  168MPD2    C5 2564   4.756   3.657  12.646
  168MPD2     H 2565   0.025   3.285  12.628
  168MPD2    H1 2566   0.021   3.679  12.452
  168MPD2    H2 2567   4.672   3.628  12.839
  168MPD2    H3 2568   4.735   3.763  12.642
  168MPD2     N 2569   0.068   3.423  12.408
  168MPD2    H5 2570   0.064   3.484  12.327
  168MPD2    N1 2571   4.681   3.343  12.827
  168MPD2    H7 2572   4.722   3.253  12.807
  169MPD1     C 2573   2.003   3.635   9.056
  169MPD1    C1 2574   1.955   3.701   9.167
  169MPD1    C2 2575   1.895   3.626   9.271
  169MPD1    C3 2576   1.881   3.488   9.257
  169MPD1    C4 2577   1.908   3.424   9.136
  169MPD1    C5 2578   1.973   3.501   9.042
  169MPD1     H 2579   1.873   3.674   9.365
  169MPD1    H1 2580   1.888   3.318   9.125
  169MPD1    H2 2581   2.058   3.687   8.979
  169MPD1    H3 2582   2.015   3.453   8.954
  169MPD1     N 2583   1.835   3.422   9.372
  169MPD1    H5 2584   1.816   3.480   9.453
  169MPD1    N1 2585   1.997   3.834   9.187
  169MPD1    H6 2586   2.007   3.883   9.098
  169MPD1    H7 2587   1.928   3.882   9.244
  170MPD1     C 2588   0.891   0.632  13.167
  170MPD1    C1 2589   0.953   0.742  13.229
  170MPD1    C2 2590   0.892   0.794  13.347
  170MPD1    C3 2591   0.775   0.732  13.400
  170MPD1    C4 2592   0.715   0.633  13.324
  170MPD1    C5 2593   0.776   0.585  13.210
  170MPD1     H 2594   0.946   0.877  13.391
  170MPD1    H1 2595   0.620   0.586  13.344
  170MPD1    H2 2596   0.945   0.594  13.081
  170MPD1    H3 2597   0.733   0.497  13.164
  170MPD1     N 2598   0.729   0.785  13.520
  170MPD1    H5 2599   0.781   0.865  13.555
  170MPD1    N1 2600   1.080   0.782  13.185
  170MPD1    H6 2601   1.091   0.774  13.084
  170MPD1    H7 2602   1.101   0.879  13.206
  171MPD1     C 2603   4.051   1.952  15.559
  171MPD1    C1 2604   4.024   1.821  15.527
  171MPD1    C2 2605   4.075   1.721  15.607
  171MPD1    C3 2606   4.165   1.751  15.715
  171MPD1    C4 2607   4.177   1.885  15.741
  171MPD1    C5 2608   4.120   1.986  15.670
  171MPD1     H 2609   4.054   1.615  15.597
  171MPD1    H1 2610   4.237   1.906  15.829
  171MPD1    H2 2611   4.015   2.035  15.499
  171MPD1    H3 2612   4.123   2.087  15.709
  171MPD1     N 2613   4.219   1.655  15.800
  171MPD1    H5 2614   4.266   1.691  15.882
  171MPD1    N1 2615   3.943   1.787  15.413
  171MPD1    H6 2616   3.924   1.862  15.346
  171MPD1    H7 2617   3.929   1.695  15.373
  172MPD1     C 2618   3.432   0.788  17.768
  172MPD1    C1 2619   3.459   0.918  17.738
  172MPD1    C2 2620   3.441   1.016  17.839
  172MPD1    C3 2621   3.405   0.982  17.971
  172MPD1    C4 2622   3.382   0.847  17.996
  172MPD1    C5 2623   3.397   0.756  17.899
  172MPD1     H 2624   3.446   1.117  17.801
  172MPD1    H1 2625   3.362   0.810  18.096
  172MPD1    H2 2626   3.436   0.701  17.703
  172MPD1    H3 2627   3.388   0.651  17.927
  172MPD1     N 2628   3.358   1.072  18.068
  172MPD1    H5 2629   3.340   1.029  18.159
  172MPD1    N1 2630   3.453   0.963  17.605
  172MPD1    H6 2631   3.499   1.053  17.599
  172MPD1    H7 2632   3.499   0.895  17.545
  173MPD1     C 2633   4.531   1.437  14.417
  173MPD1    C1 2634   4.401   1.422  14.372
  173MPD1    C2 2635   4.345   1.294  14.363
  173MPD1    C3 2636   4.404   1.193  14.434
  173MPD1    C4 2637   4.526   1.208  14.502
  173MPD1    C5 2638   4.588   1.333  14.485
  173MPD1     H 2639   4.247   1.277  14.320
  173MPD1    H1 2640   4.590   1.130  14.542
  173MPD1    H2 2641   4.593   1.525  14.402
  173MPD1    H3 2642   4.689   1.339  14.524
  173MPD1     N 2643   4.340   1.069  14.422
  173MPD1    H5 2644   4.244   1.074  14.389
  173MPD1    N1 2645   4.349   1.519  14.289
  173MPD1    H6 2646   4.363   1.608  14.337
  173MPD1    H7 2647   4.249   1.504  14.279
  174MPD1     C 2648   0.111   0.555  14.657
  174MPD1    C1 2649   4.803   0.485  14.702
  174MPD1    C2 2650   4.698   0.482  14.620
  174MPD1    C3 2651   4.687   0.541  14.497
  174MPD1    C4 2652   4.792   0.617  14.459
  174MPD1    C5 2653   0.097   0.631  14.539
  174MPD1     H 2654   4.615   0.415  14.637
  174MPD1    H1 2655   4.786   0.671  14.365
  174MPD1    H2 2656   0.197   0.575  14.720
  174MPD1    H3 2657   0.178   0.701  14.517
  174MPD1     N 2658   4.567   0.552  14.424
  174MPD1    H5 2659   4.567   0.625  14.353
  174MPD1    N1 2660   0.005   0.396  14.812
  174MPD1    H6 2661   0.073   0.420  14.884
  174MPD1    H7 2662   4.716   0.380  14.848
  175MPD1     C 2663   3.156   1.785  15.674
  175MPD1    C1 2664   3.022   1.801  15.685
  175MPD1    C2 2665   2.974   1.842  15.806
  175MPD1    C3 2666   3.049   1.843  15.922
  175MPD1    C4 2667   3.183   1.814  15.913
  175MPD1    C5 2668   3.231   1.788  15.789
  175MPD1     H 2669   2.871   1.873  15.817
  175MPD1    H1 2670   3.254   1.813  15.995
  175MPD1    H2 2671   3.207   1.788  15.578
  175MPD1    H3 2672   3.338   1.773  15.785
  175MPD1     N 2673   2.999   1.860  16.055
  175MPD1    H5 2674   3.067   1.885  16.127
  175MPD1    N1 2675   2.947   1.826  15.573
  175MPD1    H6 2676   2.848   1.814  15.595
  175MPD1    H7 2677   2.972   1.770  15.491
  176MPD1     C 2678   4.689   3.383  17.302
  176MPD1    C1 2679   4.729   3.468  17.202
  176MPD1    C2 2680   4.712   3.601  17.227
  176MPD1    C3 2681   4.643   3.646  17.340
  176MPD1    C4 2682   4.606   3.558  17.442
  176MPD1    C5 2683   4.625   3.425  17.415
  176MPD1     H 2684   4.738   3.677  17.154
  176MPD1    H1 2685   4.553   3.586  17.532
  176MPD1    H2 2686   4.704   3.277  17.289
  176MPD1    H3 2687   4.599   3.356  17.494
  176MPD1     N 2688   4.631   3.780  17.349
  176MPD1    H5 2689   4.659   3.829  17.264
  176MPD1    N1 2690   0.012   3.429  17.099
  176MPD1    H6 2691   0.018   3.503  17.029
  176MPD1    H7 2692   4.781   3.345  17.053
  177MPD1     C 2693   2.916   4.144  10.285
  177MPD1    C1 2694   2.782   4.113  10.302
  177MPD1    C2 2695   2.689   4.148  10.207
  177MPD1    C3 2696   2.723   4.232  10.102
  177MPD1    C4 2697   2.853   4.272  10.091
  177MPD1    C5 2698   2.946   4.230  10.180
  177MPD1     H 2699   2.594   4.096  10.208
  177MPD1    H1 2700   2.878   4.337  10.008
  177MPD1    H2 2701   2.992   4.101  10.349
  177MPD1    H3 2702   3.047   4.269  10.169
  177MPD1     N 2703   2.625   4.267  10.003
  177MPD1    H5 2704   2.541   4.211  10.000
  177MPD1    N1 2705   2.746   3.995  10.376
  177MPD1    H6 2706   2.648   3.979  10.396
  177MPD1    H7 2707   2.799   3.982  10.462
  178MPD1     C 2708   0.760   0.062  18.006
  178MPD1    C1 2709   0.647   0.019  17.940
  178MPD1    C2 2710   0.656   4.736  17.834
  178MPD1    C3 2711   0.780   4.682  17.795
  178MPD1    C4 2712   0.887   4.718  17.873
  178MPD1    C5 2713   0.880   0.003  17.977
  178MPD1     H 2714   0.568   4.729  17.771
  178MPD1    H1 2715   0.987   4.680  17.854
  178MPD1    H2 2716   0.747   0.131  18.089
  178MPD1    H3 2717   0.964   0.042  18.032
  178MPD1     N 2718   0.797   4.619  17.671
  178MPD1    H5 2719   0.896   4.614  17.646
  178MPD1    N1 2720   0.521   0.075  17.966
  178MPD1    H6 2721   0.501   0.122  18.054
  178MPD1    H7 2722   0.439   0.018  17.945
  179MPD1     C 2723   0.602   2.998  15.827
  179MPD1    C1 2724   0.479   2.963  15.772
  179MPD1    C2 2725   0.438   2.835  15.790
  179MPD1    C3 2726   0.522   2.740  15.852
  179MPD1    C4 2727   0.650   2.776  15.894
  179MPD1    C5 2728   0.690   2.904  15.877
  179MPD1     H 2729   0.339   2.808  15.756
  179MPD1    H1 2730   0.710   2.697  15.938
  179MPD1    H2 2731   0.644   3.098  15.829
  179MPD1    H3 2732   0.793   2.924  15.903
  179MPD1     N 2733   0.475   2.612  15.885
  179MPD1    H5 2734   0.545   2.550  15.923
  179MPD1    N1 2735   0.385   3.056  15.734
  179MPD1    H6 2736   0.342   3.021  15.649
  179MPD1    H7 2737   0.433   3.142  15.710
  180MPD1     C 2738   0.207   4.122  14.822
  180MPD1    C1 2739   0.243   4.181  14.701
  180MPD1    C2 2740   0.146   4.233  14.618
  180MPD1    C3 2741   0.011   4.222  14.646
  180MPD1    C4 2742   4.776   4.166  14.769
  180MPD1    C5 2743   0.070   4.122  14.853
  180MPD1     H 2744   0.175   4.292  14.532
  180MPD1    H1 2745   4.672   4.166  14.801
  180MPD1    H2 2746   0.270   4.088  14.903
  180MPD1    H3 2747   0.040   4.082  14.950
  180MPD1     N 2748   4.731   4.281  14.549
  180MPD1    H5 2749   4.778   4.313  14.465
  180MPD1    N1 2750   0.380   4.173  14.660
  180MPD1    H6 2751   0.416   4.247  14.600
  180MPD1    H7 2752   0.443   4.149  14.737
  181MPD1     C 2753   1.804   1.435   9.752
  181MPD1    C1 2754   1.731   1.505   9.846
  181MPD1    C2 2755   1.758   1.492   9.978
  181MPD1    C3 2756   1.838   1.384  10.016
  181MPD1    C4 2757   1.902   1.302   9.927
  181MPD1    C5 2758   1.879   1.326   9.793
  181MPD1     H 2759   1.709   1.563  10.044
  181MPD1    H1 2760   1.973   1.223   9.949
  181MPD1    H2 2761   1.800   1.456   9.646
  181MPD1    H3 2762   1.934   1.270   9.718
  181MPD1     N 2763   1.869   1.361  10.155
  181MPD1    H5 2764   1.936   1.288  10.179
  181MPD1    N1 2765   1.645   1.615   9.809
  181MPD1    H6 2766   1.569   1.620   9.876
  181MPD1    H7 2767   1.600   1.611   9.718
  182MPD1     C 2768   2.322   0.298  19.401
  182MPD1    C1 2769   2.358   0.166  19.375
  182MPD1    C2 2770   2.379   0.139  19.240
  182MPD1    C3 2771   2.367   0.230  19.137
  182MPD1    C4 2772   2.320   0.350  19.171
  182MPD1    C5 2773   2.291   0.387  19.302
  182MPD1     H 2774   2.408   0.036  19.223
  182MPD1    H1 2775   2.310   0.425  19.093
  182MPD1    H2 2776   2.324   0.343  19.500
  182MPD1    H3 2777   2.255   0.488  19.320
  182MPD1     N 2778   2.405   0.204  19.004
  182MPD1    H5 2779   2.377   0.271  18.933
  182MPD1    N1 2780   2.377   0.059  19.474
  182MPD1    H6 2781   2.320   0.095  19.550
  182MPD1    H7 2782   2.354   4.770  19.442
  183MPD1     C 2783   2.845   0.671   8.992
  183MPD1    C1 2784   2.955   0.667   9.067
  183MPD1    C2 2785   2.977   0.756   9.172
  183MPD1    C3 2786   2.877   0.847   9.201
  183MPD1    C4 2787   2.753   0.834   9.139
  183MPD1    C5 2788   2.745   0.739   9.041
  183MPD1     H 2789   3.076   0.771   9.213
  183MPD1    H1 2790   2.664   0.892   9.160
  183MPD1    H2 2791   2.832   0.613   8.901
  183MPD1    H3 2792   2.648   0.732   8.993
  183MPD1     N 2793   2.905   0.948   9.301
  183MPD1    H5 2794   3.002   0.956   9.331
  183MPD1    N1 2795   3.066   0.590   9.022
  183MPD1    H6 2796   3.146   0.583   9.084
  183MPD1    H7 2797   3.037   0.500   8.985
  184MPD1     C 2798   1.818   3.609  10.516
  184MPD1    C1 2799   1.757   3.576  10.397
  184MPD1    C2 2800   1.803   3.642  10.288
  184MPD1    C3 2801   1.885   3.747  10.289
  184MPD1    C4 2802   1.939   3.789  10.411
  184MPD1    C5 2803   1.905   3.714  10.524
  184MPD1     H 2804   1.758   3.613  10.194
  184MPD1    H1 2805   1.999   3.878  10.425
  184MPD1    H2 2806   1.784   3.564  10.608
  184MPD1    H3 2807   1.946   3.745  10.620
  184MPD1     N 2808   1.920   3.825  10.180
  184MPD1    H5 2809   1.972   3.911  10.195
  184MPD1    N1 2810   1.681   3.461  10.390
  184MPD1    H6 2811   1.617   3.454  10.469
  184MPD1    H7 2812   1.621   3.467  10.308
  185MPD1     C 2813   1.806   4.131   9.128
  185MPD1    C1 2814   1.736   4.032   9.192
  185MPD1    C2 2815   1.761   4.014   9.334
  185MPD1    C3 2816   1.880   4.076   9.381
  185MPD1    C4 2817   1.957   4.150   9.303
  185MPD1    C5 2818   1.922   4.180   9.171
  185MPD1     H 2819   1.696   3.958   9.400
  185MPD1    H1 2820   2.054   4.191   9.328
  185MPD1    H2 2821   1.778   4.165   9.029
  185MPD1    H3 2822   1.986   4.245   9.112
  185MPD1     N 2823   1.931   4.059   9.513
  185MPD1    H5 2824   2.003   4.123   9.544
  185MPD1    N1 2825   1.619   3.980   9.131
  185MPD1    H6 2826   1.628   3.973   9.030
  185MPD1    H7 2827   1.577   3.899   9.176
  186MPD1     C 2828   0.956   2.454  16.036
  186MPD1    C1 2829   0.983   2.580  15.982
  186MPD1    C2 2830   0.960   2.687  16.061
  186MPD1    C3 2831   0.921   2.673  16.192
  186MPD1    C4 2832   0.902   2.546  16.245
  186MPD1    C5 2833   0.919   2.440  16.166
  186MPD1     H 2834   0.974   2.786  16.018
  186MPD1    H1 2835   0.870   2.534  16.348
  186MPD1    H2 2836   0.957   2.359  15.984
  186MPD1    H3 2837   0.909   2.340  16.207
  186MPD1     N 2838   0.866   2.784  16.260
  186MPD1    H5 2839   0.809   2.755  16.339
  186MPD1    N1 2840   1.006   2.597  15.846
  186MPD1    H6 2841   1.054   2.685  15.830
  186MPD1    H7 2842   1.048   2.513  15.807
  187MPD1     C 2843   4.426   0.387  18.311
  187MPD1    C1 2844   4.424   0.266  18.255
  187MPD1    C2 2845   4.489   0.244  18.135
  187MPD1    C3 2846   4.530   0.346  18.058
  187MPD1    C4 2847   4.522   0.470  18.116
  187MPD1    C5 2848   4.467   0.491  18.234
  187MPD1     H 2849   4.505   0.140  18.110
  187MPD1    H1 2850   4.579   0.551  18.072
  187MPD1    H2 2851   4.388   0.410  18.410
  187MPD1    H3 2852   4.467   0.593  18.271
  187MPD1     N 2853   4.592   0.336  17.929
  187MPD1    H5 2854   4.624   0.424  17.889
  187MPD1    N1 2855   4.385   0.162  18.330
  187MPD1    H6 2856   4.294   0.176  18.372
  187MPD1    H7 2857   4.374   0.075  18.278
  188MPD1     C 2858   4.785   0.144   9.117
  188MPD1    C1 2859   4.661   0.088   9.109
  188MPD1    C2 2860   4.585   0.065   9.216
  188MPD1    C3 2861   4.638   0.080   9.343
  188MPD1    C4 2862   4.772   0.119   9.361
  188MPD1    C5 2863   0.032   0.150   9.239
  188MPD1     H 2864   4.479   0.049   9.201
  188MPD1    H1 2865   0.009   0.142   9.459
  188MPD1    H2 2866   0.035   0.180   9.031
  188MPD1    H3 2867   0.134   0.181   9.258
  188MPD1     N 2868   4.555   0.047   9.450
  188MPD1    H5 2869   4.600   0.045   9.541
  188MPD1    N1 2870   4.608   0.076   8.984
  188MPD1    H6 2871   4.672   0.048   8.910
  188MPD1    H7 2872   4.522   0.022   8.978
  189MPD1     C 2873   1.482   0.749  18.786
  189MPD1    C1 2874   1.499   0.884  18.786
  189MPD1    C2 2875   1.413   0.964  18.710
  189MPD1    C3 2876   1.300   0.908  18.647
  189MPD1    C4 2877   1.284   0.771  18.663
  189MPD1    C5 2878   1.375   0.695  18.719
  189MPD1     H 2879   1.431   1.070  18.710
  189MPD1    H1 2880   1.199   0.721  18.619
  189MPD1    H2 2881   1.544   0.675  18.835
  189MPD1    H3 2882   1.360   0.588  18.723
  189MPD1     N 2883   1.204   0.989  18.578
  189MPD1    H5 2884   1.225   1.088  18.566
  189MPD1    N1 2885   1.612   0.938  18.845
  189MPD1    H6 2886   1.666   0.878  18.907
  189MPD1    H7 2887   1.631   1.033  18.878
  190MPD1     C 2888   4.793   3.839  15.545
  190MPD1    C1 2889   4.793   3.852  15.685
  190MPD1    C2 2890   0.099   3.911  15.745
  190MPD1    C3 2891   0.203   3.966  15.672
  190MPD1    C4 2892   0.198   3.944  15.535
  190MPD1    C5 2893   0.087   3.890  15.475
  190MPD1     H 2894   0.092   3.927  15.852
  190MPD1    H1 2895   0.287   3.963  15.476
  190MPD1    H2 2896   4.721   3.786  15.485
  190MPD1    H3 2897   0.088   3.878  15.367
  190MPD1     N 2898   0.313   4.022  15.743
  190MPD1    H5 2899   0.307   4.018  15.844
  190MPD1    N1 2900   4.691   3.782  15.748
  190MPD1    H6 2901   4.606   3.781  15.692
  190MPD1    H7 2902   4.679   3.829  15.838
  191MPD1     C 2903   0.084   1.051  13.046
  191MPD1    C1 2904   4.774   0.976  13.028
  191MPD1    C2 2905   4.698   0.989  12.916
  191MPD1    C3 2906   4.751   1.075  12.817
  191MPD1    C4 2907   0.057   1.153  12.835
  191MPD1    C5 2908   0.128   1.134  12.949
  191MPD1     H 2909   4.608   0.931  12.898
  191MPD1    H1 2910   0.089   1.236  12.773
  191MPD1    H2 2911   0.150   1.051  13.133
  191MPD1    H3 2912   0.221   1.189  12.964
  191MPD1     N 2913   4.670   1.093  12.701
  191MPD1    H5 2914   4.591   1.029  12.698
  191MPD1    N1 2915   4.722   0.903  13.136
  191MPD1    H6 2916   4.792   0.878  13.205
  191MPD1    H7 2917   4.667   0.822  13.106
  192MPD1     C 2918   4.093   1.794  12.648
  192MPD1    C1 2919   4.091   1.743  12.518
  192MPD1    C2 2920   4.196   1.663  12.476
  192MPD1    C3 2921   4.286   1.610  12.567
  192MPD1    C4 2922   4.276   1.645  12.701
  192MPD1    C5 2923   4.191   1.751  12.735
  192MPD1     H 2924   4.185   1.632  12.373
  192MPD1    H1 2925   4.347   1.605  12.772
  192MPD1    H2 2926   4.019   1.870  12.671
  192MPD1    H3 2927   4.189   1.792  12.835
  192MPD1     N 2928   4.381   1.512  12.527
  192MPD1    H5 2929   4.459   1.489  12.588
  192MPD1    N1 2930   4.005   1.806  12.426
  192MPD1    H6 2931   3.915   1.833  12.466
  192MPD1    H7 2932   3.988   1.739  12.351
  193MPD1     C 2933   4.056   1.243  16.304
  193MPD1    C1 2934   4.041   1.377  16.337
  193MPD1    C2 2935   4.121   1.447  16.430
  193MPD1    C3 2936   4.195   1.373  16.513
  193MPD1    C4 2937   4.197   1.236  16.498
  193MPD1    C5 2938   4.130   1.177  16.400
  193MPD1     H 2939   4.122   1.555  16.434
  193MPD1    H1 2940   4.252   1.175  16.570
  193MPD1    H2 2941   4.010   1.179  16.230
  193MPD1    H3 2942   4.126   1.069  16.405
  193MPD1     N 2943   4.267   1.431  16.617
  193MPD1    H5 2944   4.332   1.363  16.653
  193MPD1    N1 2945   3.967   1.454  16.244
  193MPD1    H6 2946   3.897   1.398  16.195
  193MPD1    H7 2947   3.912   1.522  16.298
  194MPD1     C 2948   1.868   4.197  17.036
  194MPD1    C1 2949   1.805   4.094  16.977
  194MPD1    C2 2950   1.855   3.970  16.995
  194MPD1    C3 2951   1.981   3.954  17.060
  194MPD1    C4 2952   2.050   4.062  17.112
  194MPD1    C5 2953   1.993   4.185  17.100
  194MPD1     H 2954   1.795   3.882  16.972
  194MPD1    H1 2955   2.146   4.048  17.159
  194MPD1    H2 2956   1.824   4.296  17.026
  194MPD1    H3 2957   2.047   4.274  17.131
  194MPD1     N 2958   2.040   3.826  17.065
  194MPD1    H5 2959   2.124   3.813  17.120
  194MPD1    N1 2960   1.672   4.120  16.941
  194MPD1    H6 2961   1.662   4.210  16.893
  194MPD1    H7 2962   1.633   4.057  16.872
  195MPD1     C 2963   4.286   0.991  18.105
  195MPD1    C1 2964   4.163   0.944  18.144
  195MPD1    C2 2965   4.127   0.813  18.110
  195MPD1    C3 2966   4.214   0.731  18.038
  195MPD1    C4 2967   4.331   0.787  17.993
  195MPD1    C5 2968   4.371   0.915  18.031
  195MPD1     H 2969   4.025   0.781  18.131
  195MPD1    H1 2970   4.390   0.726  17.925
  195MPD1    H2 2971   4.311   1.095  18.122
  195MPD1    H3 2972   4.464   0.965  18.006
  195MPD1     N 2973   4.189   0.591  18.005
  195MPD1    H5 2974   4.258   0.543  17.948
  195MPD1    N1 2975   4.082   1.020  18.232
  195MPD1    H6 2976   3.986   0.987  18.231
  195MPD1    H7 2977   4.076   1.121  18.219
  196MPD1     C 2978   3.006   4.164  18.383
  196MPD1    C1 2979   3.044   4.273  18.311
  196MPD1    C2 2980   3.137   4.362  18.363
  196MPD1    C3 2981   3.191   4.345  18.488
  196MPD1    C4 2982   3.149   4.236  18.558
  196MPD1    C5 2983   3.062   4.143  18.505
  196MPD1     H 2984   3.162   4.448  18.303
  196MPD1    H1 2985   3.199   4.212  18.651
  196MPD1    H2 2986   2.928   4.097  18.347
  196MPD1    H3 2987   3.057   4.047  18.555
  196MPD1     N 2988   3.284   4.428  18.552
  196MPD1    H5 2989   3.298   4.406  18.650
  196MPD1    N1 2990   2.999   4.292  18.176
  196MPD1    H6 2991   2.913   4.245  18.151
  196MPD1    H7 2992   2.995   4.384  18.135
  197MPD1     C 2993   3.272   2.495  17.962
  197MPD1    C1 2994   3.230   2.624  17.925
  197MPD1    C2 2995   3.192   2.636  17.794
  197MPD1    C3 2996   3.195   2.526  17.705
  197MPD1    C4 2997   3.222   2.400  17.744
  197MPD1    C5 2998   3.265   2.384  17.876
  197MPD1     H 2999   3.162   2.737  17.766
  197MPD1    H1 3000   3.219   2.318  17.673
  197MPD1    H2 3001   3.288   2.468  18.065
  197MPD1    H3 3002   3.280   2.285  17.917
  197MPD1     N 3003   3.143   2.545  17.571
  197MPD1    H5 3004   3.117   2.463  17.518
  197MPD1    N1 3005   3.187   2.713  18.019
  197MPD1    H6 3006   3.239   2.716  18.107
  197MPD1    H7 3007   3.198   2.807  17.982
  198MPD1     C 3008   0.470   0.048  15.307
  198MPD1    C1 3009   0.463   0.184  15.351
  198MPD1    C2 3010   0.384   0.212  15.457
  198MPD1    C3 3011   0.328   0.110  15.529
  198MPD1    C4 3012   0.342   4.783  15.493
  198MPD1    C5 3013   0.416   4.752  15.387
  198MPD1     H 3014   0.365   0.313  15.491
  198MPD1    H1 3015   0.302   4.703  15.555
  198MPD1    H2 3016   0.514   0.029  15.211
  198MPD1    H3 3017   0.435   4.647  15.368
  198MPD1     N 3018   0.240   0.151  15.640
  198MPD1    H5 3019   0.231   0.251  15.654
  198MPD1    N1 3020   0.515   0.283  15.272
  198MPD1    H6 3021   0.526   0.366  15.330
  198MPD1    H7 3022   0.602   0.256  15.228
  199MPD1     C 3023   2.288   1.650  10.153
  199MPD1    C1 3024   2.266   1.751  10.244
  199MPD1    C2 3025   2.148   1.827  10.236
  199MPD1    C3 3026   2.052   1.810  10.130
  199MPD1    C4 3027   2.074   1.706  10.040
  199MPD1    C5 3028   2.190   1.631  10.051
  199MPD1     H 3029   2.128   1.895  10.318
  199MPD1    H1 3030   2.005   1.680   9.960
  199MPD1    H2 3031   2.375   1.586  10.153
  199MPD1    H3 3032   2.211   1.547   9.986
  199MPD1     N 3033   1.948   1.900  10.106
  199MPD1    H5 3034   1.889   1.876  10.027
  199MPD1    N1 3035   2.346   1.760  10.357
  199MPD1    H6 3036   2.349   1.856  10.389
  199MPD1    H7 3037   2.441   1.724  10.344
  200MPD1     C 3038   0.773   1.709  15.304
  200MPD1    C1 3039   0.811   1.687  15.172
  200MPD1    C2 3040   0.944   1.716  15.141
  200MPD1    C3 3041   1.041   1.751  15.235
  200MPD1    C4 3042   1.003   1.744  15.368
  200MPD1    C5 3043   0.868   1.735  15.395
  200MPD1     H 3044   0.964   1.697  15.036
  200MPD1    H1 3045   1.081   1.761  15.441
  200MPD1    H2 3046   0.674   1.708  15.349
  200MPD1    H3 3047   0.835   1.727  15.498
  200MPD1     N 3048   1.174   1.741  15.184
  200MPD1    H5 3049   1.180   1.720  15.085
  200MPD1    N1 3050   0.713   1.674  15.070
  200MPD1    H6 3051   0.633   1.615  15.093
  200MPD1    H7 3052   0.763   1.645  14.986
  201MPD1     C 3053   3.460   1.195  13.659
  201MPD1    C1 3054   3.354   1.108  13.638
  201MPD1    C2 3055   3.381   0.978  13.681
  201MPD1    C3 3056   3.504   0.938  13.730
  201MPD1    C4 3057   3.607   1.028  13.744
  201MPD1    C5 3058   3.584   1.156  13.707
  201MPD1     H 3059   3.298   0.909  13.675
  201MPD1    H1 3060   3.698   1.003  13.797
  201MPD1    H2 3061   3.451   1.302  13.646
  201MPD1    H3 3062   3.658   1.229  13.740
  201MPD1     N 3063   3.519   0.799  13.752
  201MPD1    H5 3064   3.437   0.741  13.733
  201MPD1    N1 3065   3.228   1.151  13.608
  201MPD1    H6 3066   3.170   1.085  13.557
  201MPD1    H7 3067   3.229   1.235  13.549
  202MPD1     C 3068   2.887   0.079   9.282
  202MPD1    C1 3069   2.975   4.784   9.316
  202MPD1    C2 3070   3.062   0.006   9.421
  202MPD1    C3 3071   3.059   0.128   9.493
  202MPD1    C4 3072   2.967   0.220   9.460
  202MPD1    C5 3073   2.880   0.192   9.362
  202MPD1     H 3074   3.138   4.735   9.437
  202MPD1    H1 3075   2.949   0.312   9.514
  202MPD1    H2 3076   2.827   0.067   9.193
  202MPD1    H3 3077   2.811   0.268   9.329
  202MPD1     N 3078   3.137   0.157   9.608
  202MPD1    H5 3079   3.139   0.249   9.651
  202MPD1    N1 3080   3.000   4.671   9.235
  202MPD1    H6 3081   3.038   4.590   9.283
  202MPD1    H7 3082   2.920   4.651   9.176
  203MPD1     C 3083   2.424   1.377  12.801
  203MPD1    C1 3084   2.500   1.297  12.711
  203MPD1    C2 3085   2.535   1.168  12.745
  203MPD1    C3 3086   2.506   1.119  12.874
  203MPD1    C4 3087   2.438   1.200  12.963
  203MPD1    C5 3088   2.400   1.327  12.924
  203MPD1     H 3089   2.591   1.111  12.672
  203MPD1    H1 3090   2.403   1.161  13.058
  203MPD1    H2 3091   2.384   1.472  12.769
  203MPD1    H3 3092   2.338   1.387  12.989
  203MPD1     N 3093   2.546   0.987  12.903
  203MPD1    H5 3094   2.588   0.930  12.830
  203MPD1    N1 3095   2.516   1.337  12.579
  203MPD1    H6 3096   2.605   1.317  12.534
  203MPD1    H7 3097   2.507   1.439  12.570
  204MPD1     C 3098   1.728   2.296  18.356
  204MPD1    C1 3099   1.822   2.320  18.261
  204MPD1    C2 3100   1.862   2.213  18.180
  204MPD1    C3 3101   1.803   2.088  18.192
  204MPD1    C4 3102   1.702   2.062  18.288
  204MPD1    C5 3103   1.674   2.175  18.374
  204MPD1     H 3104   1.945   2.219  18.110
  204MPD1    H1 3105   1.643   1.971  18.299
  204MPD1    H2 3106   1.678   2.376  18.410
  204MPD1    H3 3107   1.581   2.178  18.429
  204MPD1     N 3108   1.846   1.983  18.102
  204MPD1    H5 3109   1.925   2.004  18.042
  204MPD1    N1 3110   1.896   2.434  18.261
  204MPD1    H6 3111   1.926   2.462  18.168
  204MPD1    H7 3112   1.849   2.513  18.304
  205MPD1     C 3113   2.230   0.894  16.901
  205MPD1    C1 3114   2.262   0.777  16.964
  205MPD1    C2 3115   2.200   0.758  17.089
  205MPD1    C3 3116   2.108   0.849  17.142
  205MPD1    C4 3117   2.074   0.958  17.074
  205MPD1    C5 3118   2.139   0.981  16.956
  205MPD1     H 3119   2.223   0.675  17.154
  205MPD1    H1 3120   1.992   1.020  17.107
  205MPD1    H2 3121   2.264   0.916  16.801
  205MPD1    H3 3122   2.116   1.065  16.893
  205MPD1     N 3123   2.054   0.829  17.266
  205MPD1    H5 3124   2.006   0.911  17.302
  205MPD1    N1 3125   2.313   0.664  16.899
  205MPD1    H6 3126   2.382   0.687  16.828
  205MPD1    H7 3127   2.364   0.605  16.965
  206MPD1     C 3128   2.610   4.127  17.067
  206MPD1    C1 3129   2.620   4.018  16.978
  206MPD1    C2 3130   2.501   3.967  16.923
  206MPD1    C3 3131   2.377   4.032  16.936
  206MPD1    C4 3132   2.375   4.145  17.013
  206MPD1    C5 3133   2.488   4.190  17.081
  206MPD1     H 3134   2.508   3.877  16.862
  206MPD1    H1 3135   2.290   4.211  17.021
  206MPD1    H2 3136   2.693   4.151  17.132
  206MPD1    H3 3137   2.482   4.272  17.152
  206MPD1     N 3138   2.260   3.980  16.881
  206MPD1    H5 3139   2.180   4.037  16.902
  206MPD1    N1 3140   2.738   3.952  16.966
  206MPD1    H6 3141   2.744   3.892  16.884
  206MPD1    H7 3142   2.819   4.014  16.959
  207MPD1     C 3143   4.285   1.595  10.292
  207MPD1    C1 3144   4.378   1.677  10.237
  207MPD1    C2 3145   4.501   1.696  10.295
  207MPD1    C3 3146   4.534   1.617  10.398
  207MPD1    C4 3147   4.433   1.534  10.462
  207MPD1    C5 3148   4.319   1.523  10.404
  207MPD1     H 3149   4.582   1.747  10.244
  207MPD1    H1 3150   4.448   1.473  10.550
  207MPD1    H2 3151   4.187   1.578  10.249
  207MPD1    H3 3152   4.247   1.450  10.438
  207MPD1     N 3153   4.650   1.638  10.482
  207MPD1    H5 3154   4.642   1.597  10.575
  207MPD1    N1 3155   4.353   1.742  10.110
  207MPD1    H6 3156   4.429   1.807  10.090
  207MPD1    H7 3157   4.259   1.766  10.079
  208MPD1     C 3158   2.702   0.231  17.372
  208MPD1    C1 3159   2.708   0.223  17.510
  208MPD1    C2 3160   2.621   0.140  17.573
  208MPD1    C3 3161   2.538   0.051  17.503
  208MPD1    C4 3162   2.531   0.058  17.366
  208MPD1    C5 3163   2.619   0.145  17.304
  208MPD1     H 3164   2.608   0.147  17.680
  208MPD1    H1 3165   2.476   4.791  17.306
  208MPD1    H2 3166   2.755   0.294  17.302
  208MPD1    H3 3167   2.626   0.142  17.196
  208MPD1     N 3168   2.457   4.766  17.585
  208MPD1    H5 3169   2.480   4.769  17.684
  208MPD1    N1 3170   2.774   0.326  17.581
  208MPD1    H6 3171   2.805   0.301  17.675
  208MPD1    H7 3172   2.851   0.377  17.539
  209MPD1     C 3173   0.151   0.367  11.523
  209MPD1    C1 3174   0.193   0.400  11.393
  209MPD1    C2 3175   0.257   0.522  11.379
  209MPD1    C3 3176   0.286   0.601  11.485
  209MPD1    C4 3177   0.269   0.546  11.612
  209MPD1    C5 3178   0.202   0.436  11.631
  209MPD1     H 3179   0.272   0.563  11.279
  209MPD1    H1 3180   0.309   0.589  11.703
  209MPD1    H2 3181   0.107   0.273  11.551
  209MPD1    H3 3182   0.193   0.392  11.730
  209MPD1     N 3183   0.339   0.733  11.461
  209MPD1    H5 3184   0.352   0.754  11.362
  209MPD1    N1 3185   0.147   0.327  11.280
  209MPD1    H6 3186   0.130   0.229  11.304
  209MPD1    H7 3187   0.207   0.330  11.198
  210MPD1     C 3188   1.120   1.451  11.498
  210MPD1    C1 3189   1.081   1.388  11.613
  210MPD1    C2 3190   0.956   1.327  11.613
  210MPD1    C3 3191   0.883   1.327  11.497
  210MPD1    C4 3192   0.926   1.395  11.384
  210MPD1    C5 3193   1.045   1.452  11.385
  210MPD1     H 3194   0.920   1.286  11.706
  210MPD1    H1 3195   0.880   1.392  11.286
  210MPD1    H2 3196   1.222   1.489  11.491
  210MPD1    H3 3197   1.082   1.490  11.290
  210MPD1     N 3198   0.762   1.252  11.474
  210MPD1    H5 3199   0.722   1.247  11.381
  210MPD1    N1 3200   1.174   1.389  11.718
  210MPD1    H6 3201   1.264   1.390  11.671
  210MPD1    H7 3202   1.159   1.296  11.755
  211MPD1     C 3203   2.615   0.351  16.772
  211MPD1    C1 3204   2.653   0.477  16.725
  211MPD1    C2 3205   2.561   0.555  16.660
  211MPD1    C3 3206   2.429   0.502  16.637
  211MPD1    C4 3207   2.404   0.370  16.670
  211MPD1    C5 3208   2.493   0.300  16.738
  211MPD1     H 3209   2.588   0.654  16.625
  211MPD1    H1 3210   2.309   0.319  16.654
  211MPD1    H2 3211   2.686   0.297  16.834
  211MPD1    H3 3212   2.478   0.195  16.762
  211MPD1     N 3213   2.338   0.571  16.550
  211MPD1    H5 3214   2.371   0.658  16.509
  211MPD1    N1 3215   2.778   0.535  16.763
  211MPD1    H6 3216   2.853   0.468  16.779
  211MPD1    H7 3217   2.802   0.598  16.686
  212MPD1     C 3218   1.568   3.952  16.679
  212MPD1    C1 3219   1.468   4.033  16.720
  212MPD1    C2 3220   1.372   3.980  16.801
  212MPD1    C3 3221   1.384   3.857  16.857
  212MPD1    C4 3222   1.489   3.779  16.826
  212MPD1    C5 3223   1.584   3.832  16.739
  212MPD1     H 3224   1.288   4.042  16.830
  212MPD1    H1 3225   1.516   3.683  16.868
  212MPD1    H2 3226   1.651   3.977  16.614
  212MPD1    H3 3227   1.670   3.773  16.709
  212MPD1     N 3228   1.288   3.794  16.946
  212MPD1    H5 3229   1.322   3.709  16.992
  212MPD1    N1 3230   1.452   4.156  16.650
  212MPD1    H6 3231   1.369   4.209  16.676
  212MPD1    H7 3232   1.537   4.212  16.656
  213MPD1     C 3233   4.792   4.253  15.671
  213MPD1    C1 3234   0.017   4.347  15.577
  213MPD1    C2 3235   4.715   4.417  15.521
  213MPD1    C3 3236   4.582   4.391  15.550
  213MPD1    C4 3237   4.552   4.295  15.643
  213MPD1    C5 3238   4.655   4.225  15.705
  213MPD1     H 3239   4.730   4.506  15.461
  213MPD1    H1 3240   4.448   4.272  15.667
  213MPD1    H2 3241   0.069   4.198  15.715
  213MPD1    H3 3242   4.635   4.139  15.769
  213MPD1     N 3243   4.479   4.459  15.470
  213MPD1    H5 3244   4.519   4.515  15.395
  213MPD1    N1 3245   0.145   4.395  15.574
  213MPD1    H6 3246   0.148   4.458  15.494
  213MPD1    H7 3247   0.210   4.322  15.547
  214MPD1     C 3248   3.468   4.214  15.499
  214MPD1    C1 3249   3.517   4.214  15.370
  214MPD1    C2 3250   3.641   4.279  15.344
  214MPD1    C3 3251   3.708   4.347  15.443
  214MPD1    C4 3252   3.654   4.347  15.574
  214MPD1    C5 3253   3.531   4.289  15.599
  214MPD1     H 3254   3.683   4.280  15.244
  214MPD1    H1 3255   3.718   4.405  15.640
  214MPD1    H2 3256   3.377   4.161  15.523
  214MPD1    H3 3257   3.497   4.303  15.701
  214MPD1     N 3258   3.840   4.401  15.422
  214MPD1    H5 3259   3.892   4.439  15.501
  214MPD1    N1 3260   3.462   4.120  15.278
  214MPD1    H6 3261   3.362   4.110  15.290
  214MPD1    H7 3262   3.484   4.138  15.180
  215MPD1     C 3263   4.485   0.098  11.067
  215MPD1    C1 3264   4.587   0.087  11.148
  215MPD1    C2 3265   4.649   0.199  11.199
  215MPD1    C3 3266   4.595   0.324  11.177
  215MPD1    C4 3267   4.481   0.331  11.102
  215MPD1    C5 3268   4.422   0.217  11.045
  215MPD1     H 3269   4.744   0.185  11.251
  215MPD1    H1 3270   4.447   0.429  11.071
  215MPD1    H2 3271   4.442   0.015  11.011
  215MPD1    H3 3272   4.340   0.228  10.975
  215MPD1     N 3273   4.661   0.439  11.234
  215MPD1    H5 3274   4.758   0.424  11.260
  215MPD1    N1 3275   4.647   4.762  11.149
  215MPD1    H6 3276   4.585   4.686  11.121
  215MPD1    H7 3277   4.681   4.726  11.238
  216MPD1     C 3278   1.411   3.773  17.267
  216MPD1    C1 3279   1.461   3.643  17.240
  216MPD1    C2 3280   1.408   3.538  17.304
  216MPD1    C3 3281   1.307   3.550  17.400
  216MPD1    C4 3282   1.267   3.675  17.437
  216MPD1    C5 3283   1.321   3.788  17.370
  216MPD1     H 3284   1.447   3.441  17.274
  216MPD1    H1 3285   1.200   3.690  17.520
  216MPD1    H2 3286   1.437   3.858  17.205
  216MPD1    H3 3287   1.288   3.885  17.405
  216MPD1     N 3288   1.258   3.429  17.462
  216MPD1    H5 3289   1.289   3.343  17.418
  216MPD1    N1 3290   1.540   3.619  17.123
  216MPD1    H6 3291   1.584   3.528  17.114
  216MPD1    H7 3292   1.616   3.687  17.122
  217MPD1     C 3293   1.669   0.265   8.800
  217MPD1    C1 3294   1.621   0.297   8.926
  217MPD1    C2 3295   1.716   0.328   9.020
  217MPD1    C3 3296   1.852   0.327   8.993
  217MPD1    C4 3297   1.899   0.289   8.871
  217MPD1    C5 3298   1.803   0.258   8.777
  217MPD1     H 3299   1.685   0.363   9.117
  217MPD1    H1 3300   2.005   0.278   8.851
  217MPD1    H2 3301   1.591   0.249   8.726
  217MPD1    H3 3302   1.846   0.226   8.682
  217MPD1     N 3303   1.956   0.364   9.086
  217MPD1    H5 3304   2.054   0.357   9.060
  217MPD1    N1 3305   1.491   0.346   8.942
  217MPD1    H6 3306   1.423   0.286   8.894
  217MPD1    H7 3307   1.464   0.356   9.039
  218MPD1     C 3308   3.810   1.496  13.056
  218MPD1    C1 3309   3.920   1.529  12.972
  218MPD1    C2 3310   3.986   1.424  12.911
  218MPD1    C3 3311   3.948   1.290  12.925
  218MPD1    C4 3312   3.840   1.268  13.010
  218MPD1    C5 3313   3.778   1.369  13.074
  218MPD1     H 3314   4.069   1.455  12.848
  218MPD1    H1 3315   3.812   1.170  13.049
  218MPD1    H2 3316   3.749   1.569  13.108
  218MPD1    H3 3317   3.709   1.340  13.152
  218MPD1     N 3318   4.024   1.195  12.863
  218MPD1    H5 3319   4.094   1.234  12.801
  218MPD1    N1 3320   3.986   1.655  12.975
  218MPD1    H6 3321   4.022   1.682  12.884
  218MPD1    H7 3322   3.920   1.725  13.009
  219MPD1     C 3323   4.434   1.070  11.988
  219MPD1    C1 3324   4.376   1.175  12.055
  219MPD1    C2 3325   4.315   1.131  12.174
  219MPD1    C3 3326   4.321   1.004  12.225
  219MPD1    C4 3327   4.392   0.911  12.159
  219MPD1    C5 3328   4.445   0.944  12.038
  219MPD1     H 3329   4.261   1.206  12.231
  219MPD1    H1 3330   4.400   0.808  12.195
  219MPD1    H2 3331   4.469   1.083  11.887
  219MPD1    H3 3332   4.490   0.866  11.979
  219MPD1     N 3333   4.269   0.975  12.357
  219MPD1    H5 3334   4.287   0.882  12.394
  219MPD1    N1 3335   4.349   1.302  12.001
  219MPD1    H6 3336   4.331   1.370  12.075
  219MPD1    H7 3337   4.422   1.333  11.937
  220MPD1     C 3338   4.045   2.071  10.303
  220MPD1    C1 3339   4.060   2.085  10.442
  220MPD1    C2 3340   4.077   1.977  10.522
  220MPD1    C3 3341   4.046   1.848  10.474
  220MPD1    C4 3342   4.015   1.829  10.342
  220MPD1    C5 3343   4.015   1.939  10.263
  220MPD1     H 3344   4.095   1.987  10.629
  220MPD1    H1 3345   4.001   1.728  10.306
  220MPD1    H2 3346   4.050   2.149  10.228
  220MPD1    H3 3347   4.009   1.918  10.157
  220MPD1     N 3348   4.049   1.749  10.571
  220MPD1    H5 3349   4.072   1.780  10.665
  220MPD1    N1 3350   4.084   2.215  10.485
  220MPD1    H6 3351   4.046   2.286  10.424
  220MPD1    H7 3352   4.058   2.227  10.583
  221MPD1     C 3353   1.433   0.049  16.504
  221MPD1    C1 3354   1.522   0.070  16.608
  221MPD1    C2 3355   1.652   0.029  16.589
  221MPD1    C3 3356   1.694   4.794  16.462
  221MPD1    C4 3357   1.601   4.789  16.359
  221MPD1    C5 3358   1.473   0.016  16.378
  221MPD1     H 3359   1.722   0.049  16.670
  221MPD1    H1 3360   1.631   4.764  16.258
  221MPD1    H2 3361   1.325   0.055  16.505
  221MPD1    H3 3362   1.404   0.021  16.295
  221MPD1     N 3363   1.819   4.736  16.433
  221MPD1    H5 3364   1.840   4.709  16.338
  221MPD1    N1 3365   1.467   0.114  16.729
  221MPD1    H6 3366   1.539   0.169  16.775
  221MPD1    H7 3367   1.378   0.163  16.733
  222MPD1     C 3368   0.690   3.467  17.885
  222MPD1    C1 3369   0.764   3.526  17.782
  222MPD1    C2 3370   0.785   3.662  17.797
  222MPD1    C3 3371   0.749   3.732  17.917
  222MPD1    C4 3372   0.676   3.663  18.014
  222MPD1    C5 3373   0.652   3.528  18.003
  222MPD1     H 3374   0.834   3.711  17.713
  222MPD1    H1 3375   0.645   3.718  18.103
  222MPD1    H2 3376   0.663   3.363  17.869
  222MPD1    H3 3377   0.604   3.467  18.078
  222MPD1     N 3378   0.751   3.871  17.926
  222MPD1    H5 3379   0.691   3.909  17.999
  222MPD1    N1 3380   0.781   3.462  17.656
  222MPD1    H6 3381   0.859   3.503  17.604
  222MPD1    H7 3382   0.780   3.360  17.655
  223MPD1     C 3383   0.183   4.660  18.088
  223MPD1    C1 3384   0.278   4.650  18.185
  223MPD1    C2 3385   0.395   4.580  18.157
  223MPD1    C3 3386   0.416   4.512  18.040
  223MPD1    C4 3387   0.321   4.531  17.940
  223MPD1    C5 3388   0.203   4.592  17.971
  223MPD1     H 3389   0.473   4.577  18.232
  223MPD1    H1 3390   0.330   4.492  17.840
  223MPD1    H2 3391   0.091   4.716  18.089
  223MPD1    H3 3392   0.133   4.594  17.888
  223MPD1     N 3393   0.534   4.435  18.018
  223MPD1    H5 3394   0.606   4.436  18.090
  223MPD1    N1 3395   0.259   4.724  18.303
  223MPD1    H6 3396   0.159   4.737  18.312
  223MPD1    H7 3397   0.297   4.675  18.383
  224MPD1     C 3398   2.275   0.747   9.151
  224MPD1    C1 3399   2.258   0.863   9.224
  224MPD1    C2 3400   2.336   0.877   9.338
  224MPD1    C3 3401   2.439   0.787   9.377
  224MPD1    C4 3402   2.462   0.678   9.293
  224MPD1    C5 3403   2.373   0.661   9.185
  224MPD1     H 3404   2.300   0.959   9.399
  224MPD1    H1 3405   2.534   0.600   9.312
  224MPD1    H2 3406   2.217   0.715   9.066
  224MPD1    H3 3407   2.389   0.570   9.128
  224MPD1     N 3408   2.515   0.801   9.494
  224MPD1    H5 3409   2.585   0.736   9.527
  224MPD1    N1 3410   2.155   0.950   9.187
  224MPD1    H6 3411   2.158   0.951   9.085
  224MPD1    H7 3412   2.178   1.046   9.212
  225MPD1     C 3413   4.212   2.160  12.981
  225MPD1    C1 3414   4.139   2.085  13.069
  225MPD1    C2 3415   4.011   2.039  13.037
  225MPD1    C3 3416   3.962   2.069  12.910
  225MPD1    C4 3417   4.029   2.156  12.825
  225MPD1    C5 3418   4.155   2.192  12.863
  225MPD1     H 3419   3.961   1.972  13.106
  225MPD1    H1 3420   3.984   2.172  12.728
  225MPD1    H2 3421   4.313   2.191  13.002
  225MPD1    H3 3422   4.207   2.264  12.801
  225MPD1     N 3423   3.839   2.013  12.868
  225MPD1    H5 3424   3.795   2.044  12.782
  225MPD1    N1 3425   4.213   2.033  13.174
  225MPD1    H6 3426   4.145   1.997  13.241
  225MPD1    H7 3427   4.267   2.094  13.235
  226MPD1     C 3428   1.973   1.292   9.244
  226MPD1    C1 3429   2.012   1.266   9.377
  226MPD1    C2 3430   2.019   1.375   9.465
  226MPD1    C3 3431   2.002   1.506   9.417
  226MPD1    C4 3432   1.968   1.531   9.285
  226MPD1    C5 3433   1.948   1.422   9.205
  226MPD1     H 3434   2.041   1.362   9.570
  226MPD1    H1 3435   1.955   1.630   9.244
  226MPD1    H2 3436   1.971   1.209   9.174
  226MPD1    H3 3437   1.906   1.430   9.105
  226MPD1     N 3438   2.022   1.613   9.507
  226MPD1    H5 3439   2.069   1.582   9.591
  226MPD1    N1 3440   2.025   1.135   9.433
  226MPD1    H6 3441   2.052   1.065   9.364
  226MPD1    H7 3442   2.076   1.119   9.520
  227MPD1     C 3443   1.644   2.536   9.584
  227MPD1    C1 3444   1.576   2.418   9.596
  227MPD1    C2 3445   1.646   2.304   9.625
  227MPD1    C3 3446   1.779   2.304   9.663
  227MPD1    C4 3447   1.836   2.430   9.677
  227MPD1    C5 3448   1.770   2.543   9.631
  227MPD1     H 3449   1.598   2.207   9.623
  227MPD1    H1 3450   1.928   2.452   9.730
  227MPD1    H2 3451   1.588   2.626   9.563
  227MPD1    H3 3452   1.816   2.641   9.643
  227MPD1     N 3453   1.843   2.181   9.695
  227MPD1    H5 3454   1.790   2.095   9.687
  227MPD1    N1 3455   1.440   2.403   9.558
  227MPD1    H6 3456   1.397   2.330   9.613
  227MPD1    H7 3457   1.382   2.483   9.584
  228MPD1     C 3458   1.100   4.576  12.675
  228MPD1    C1 3459   0.992   4.646  12.617
  228MPD1    C2 3460   0.865   4.599  12.640
  228MPD1    C3 3461   0.838   4.503  12.745
  228MPD1    C4 3462   0.947   4.433  12.803
  228MPD1    C5 3463   1.074   4.475  12.769
  228MPD1     H 3464   0.783   4.654  12.596
  228MPD1    H1 3465   0.937   4.360  12.883
  228MPD1    H2 3466   1.201   4.606  12.648
  228MPD1    H3 3467   1.158   4.427  12.818
  228MPD1     N 3468   0.703   4.487  12.774
  228MPD1    H5 3469   0.639   4.548  12.725
  228MPD1    N1 3470   1.022   4.743  12.517
  228MPD1    H6 3471   1.111   4.786  12.539
  228MPD1    H7 3472   0.949   0.008  12.504
  229MPD1     C 3473   0.428   3.192  14.602
  229MPD1    C1 3474   0.343   3.107  14.669
  229MPD1    C2 3475   0.375   3.081  14.799
  229MPD1    C3 3476   0.501   3.112  14.855
  229MPD1    C4 3477   0.590   3.181  14.777
  229MPD1    C5 3478   0.556   3.218  14.651
  229MPD1     H 3479   0.300   3.030  14.858
  229MPD1    H1 3480   0.691   3.202  14.811
  229MPD1    H2 3481   0.400   3.223  14.502
  229MPD1    H3 3482   0.621   3.276  14.587
  229MPD1     N 3483   0.543   3.066  14.982
  229MPD1    H5 3484   0.635   3.096  15.013
  229MPD1    N1 3485   0.207   3.090  14.620
  229MPD1    H6 3486   0.212   3.084  14.518
  229MPD1    H7 3487   0.163   3.003  14.648
  230MPD1     C 3488   1.087   3.076  15.799
  230MPD1    C1 3489   1.101   2.949  15.760
  230MPD1    C2 3490   1.007   2.893  15.678
  230MPD1    C3 3491   0.908   2.976  15.623
  230MPD1    C4 3492   0.902   3.111  15.657
  230MPD1    C5 3493   0.987   3.159  15.753
  230MPD1     H 3494   1.016   2.788  15.652
  230MPD1    H1 3495   0.834   3.176  15.603
  230MPD1    H2 3496   1.156   3.117  15.872
  230MPD1    H3 3497   0.995   3.266  15.772
  230MPD1     N 3498   0.831   2.917  15.514
  230MPD1    H5 3499   0.824   2.816  15.504
  230MPD1    N1 3500   1.194   2.865  15.824
  230MPD1    H6 3501   1.277   2.911  15.861
  230MPD1    H7 3502   1.221   2.782  15.772
  231MPD1     C 3503   3.500   4.624  15.972
  231MPD1    C1 3504   3.413   4.667  15.881
  231MPD1    C2 3505   3.448   4.670  15.747
  231MPD1    C3 3506   3.585   4.669  15.712
  231MPD1    C4 3507   3.670   4.635  15.811
  231MPD1    C5 3508   3.632   4.614  15.939
  231MPD1     H 3509   3.374   4.702  15.674
  231MPD1    H1 3510   3.777   4.648  15.798
  231MPD1    H2 3511   3.458   4.605  16.070
  231MPD1    H3 3512   3.714   4.598  16.008
  231MPD1     N 3513   3.631   4.704  15.584
  231MPD1    H5 3514   3.562   4.735  15.516
  231MPD1    N1 3515   3.273   4.673  15.914
  231MPD1    H6 3516   3.264   4.684  16.014
  231MPD1    H7 3517   3.219   4.744  15.864
  232MPD1     C 3518   0.607   2.694  18.427
  232MPD1    C1 3519   0.562   2.608  18.328
  232MPD1    C2 3520   0.499   2.495  18.370
  232MPD1    C3 3521   0.486   2.478  18.508
  232MPD1    C4 3522   0.531   2.564  18.604
  232MPD1    C5 3523   0.592   2.674  18.558
  232MPD1     H 3524   0.470   2.407  18.314
  232MPD1    H1 3525   0.517   2.542  18.709
  232MPD1    H2 3526   0.673   2.776  18.401
  232MPD1    H3 3527   0.637   2.740  18.631
  232MPD1     N 3528   0.418   2.359  18.545
  232MPD1    H5 3529   0.382   2.301  18.470
  232MPD1    N1 3530   0.616   2.607  18.203
  232MPD1    H6 3531   0.553   2.563  18.136
  232MPD1    H7 3532   0.630   2.701  18.165
  233MPD1     C 3533   1.919   0.265  17.963
  233MPD1    C1 3534   1.810   0.249  18.050
  233MPD1    C2 3535   1.807   0.321  18.170
  233MPD1    C3 3536   1.915   0.392  18.205
  233MPD1    C4 3537   2.034   0.392  18.128
  233MPD1    C5 3538   2.029   0.331  18.010
  233MPD1     H 3539   1.720   0.334  18.234
  233MPD1    H1 3540   2.123   0.447  18.155
  233MPD1    H2 3541   1.923   0.227  17.861
  233MPD1    H3 3542   2.109   0.322  17.938
  233MPD1     N 3543   1.919   0.479  18.312
  233MPD1    H5 3544   2.009   0.524  18.328
  233MPD1    N1 3545   1.692   0.192  18.004
  233MPD1    H6 3546   1.655   0.129  18.075
  233MPD1    H7 3547   1.717   0.135  17.923
  234MPD1     C 3548   3.142   4.000   9.719
  234MPD1    C1 3549   3.081   4.059   9.614
  234MPD1    C2 3550   3.060   4.194   9.623
  234MPD1    C3 3551   3.075   4.271   9.740
  234MPD1    C4 3552   3.120   4.204   9.853
  234MPD1    C5 3553   3.163   4.075   9.831
  234MPD1     H 3554   3.020   4.237   9.532
  234MPD1    H1 3555   3.127   4.231   9.958
  234MPD1    H2 3556   3.167   3.895   9.722
  234MPD1    H3 3557   3.199   4.033   9.924
  234MPD1     N 3558   3.029   4.405   9.749
  234MPD1    H5 3559   2.988   4.453   9.669
  234MPD1    N1 3560   3.066   3.999   9.486
  234MPD1    H6 3561   3.004   4.052   9.425
  234MPD1    H7 3562   3.024   3.908   9.504
  235MPD1     C 3563   4.632   1.866  10.924
  235MPD1    C1 3564   4.573   1.897  10.805
  235MPD1    C2 3565   4.629   1.996  10.731
  235MPD1    C3 3566   4.755   2.052  10.763
  235MPD1    C4 3567   0.024   1.998  10.871
  235MPD1    C5 3568   4.759   1.919  10.956
  235MPD1     H 3569   4.580   2.029  10.640
  235MPD1    H1 3570   0.128   2.020  10.891
  235MPD1    H2 3571   4.591   1.795  10.994
  235MPD1    H3 3572   0.016   1.893  11.042
  235MPD1     N 3573   4.797   2.154  10.675
  235MPD1    H5 3574   4.730   2.186  10.606
  235MPD1    N1 3575   4.438   1.855  10.765
  235MPD1    H6 3576   4.416   1.764  10.806
  235MPD1    H7 3577   4.415   1.854  10.666
  236MPD1     C 3578   3.618   3.501  10.051
  236MPD1    C1 3579   3.604   3.369  10.008
  236MPD1    C2 3580   3.709   3.283  10.041
  236MPD1    C3 3581   3.829   3.332  10.082
  236MPD1    C4 3582   3.841   3.465  10.118
  236MPD1    C5 3583   3.741   3.550  10.096
  236MPD1     H 3584   3.700   3.176  10.025
  236MPD1    H1 3585   3.936   3.510  10.146
  236MPD1    H2 3586   3.530   3.564  10.046
  236MPD1    H3 3587   3.762   3.655  10.115
  236MPD1     N 3588   3.943   3.257  10.113
  236MPD1    H5 3589   4.008   3.308  10.172
  236MPD1    N1 3590   3.472   3.319   9.979
  236MPD1    H6 3591   3.469   3.227   9.937
  236MPD1    H7 3592   3.405   3.381   9.935
  237MPD1     C 3593   4.269   1.067  15.318
  237MPD1    C1 3594   4.195   1.130  15.420
  237MPD1    C2 3595   4.062   1.096  15.441
  237MPD1    C3 3596   3.998   1.014  15.352
  237MPD1    C4 3597   4.068   0.973  15.237
  237MPD1    C5 3598   4.204   1.002  15.212
  237MPD1     H 3599   4.019   1.120  15.538
  237MPD1    H1 3600   4.020   0.910  15.163
  237MPD1    H2 3601   4.375   1.085  15.310
  237MPD1    H3 3602   4.259   0.955  15.132
  237MPD1     N 3603   3.861   0.977  15.370
  237MPD1    H5 3604   3.823   0.910  15.305
  237MPD1    N1 3605   4.263   1.206  15.512
  237MPD1    H6 3606   4.350   1.242  15.472
  237MPD1    H7 3607   4.202   1.277  15.552
  238MPD1     C 3608   0.905   0.189  14.978
  238MPD1    C1 3609   0.824   0.114  15.057
  238MPD1    C2 3610   0.727   0.038  14.998
  238MPD1    C3 3611   0.701   0.039  14.858
  238MPD1    C4 3612   0.779   0.124  14.783
  238MPD1    C5 3613   0.880   0.197  14.841
  238MPD1     H 3614   0.666   4.782  15.064
  238MPD1    H1 3615   0.751   0.135  14.679
  238MPD1    H2 3616   0.976   0.250  15.033
  238MPD1    H3 3617   0.938   0.264  14.779
  238MPD1     N 3618   0.596   4.778  14.788
  238MPD1    H5 3619   0.575   0.001  14.692
  238MPD1    N1 3620   0.856   0.102  15.196
  238MPD1    H6 3621   0.900   0.184  15.238
  238MPD1    H7 3622   0.780   0.074  15.257
  239MPD1     C 3623   0.830   0.462  15.149
  239MPD1    C1 3624   0.949   0.529  15.112
  239MPD1    C2 3625   0.935   0.631  15.018
  239MPD1    C3 3626   0.810   0.688  14.988
  239MPD1    C4 3627   0.695   0.630  15.042
  239MPD1    C5 3628   0.703   0.510  15.100
  239MPD1     H 3629   1.019   0.665  14.959
  239MPD1    H1 3630   0.597   0.674  15.028
  239MPD1    H2 3631   0.840   0.369  15.203
  239MPD1    H3 3632   0.611   0.453  15.108
  239MPD1     N 3633   0.790   0.793  14.885
  239MPD1    H5 3634   0.699   0.788  14.842
  239MPD1    N1 3635   1.065   0.456  15.143
  239MPD1    H6 3636   1.052   0.405  15.230
  239MPD1    H7 3637   1.152   0.509  15.149
  240MPD1     C 3638   4.679   0.907  13.703
  240MPD1    C1 3639   4.586   0.810  13.734
  240MPD1    C2 3640   4.616   0.696  13.814
  240MPD1    C3 3641   4.741   0.690  13.864
  240MPD1    C4 3642   0.029   0.785  13.834
  240MPD1    C5 3643   4.802   0.887  13.751
  240MPD1     H 3644   4.540   0.620  13.830
  240MPD1    H1 3645   0.125   0.792  13.883
  240MPD1    H2 3646   4.651   1.000  13.656
  240MPD1    H3 3647   0.079   0.957  13.737
  240MPD1     N 3648   4.778   0.583  13.952
  240MPD1    H5 3649   4.705   0.518  13.980
  240MPD1    N1 3650   4.454   0.830  13.685
  240MPD1    H6 3651   4.394   0.761  13.731
  240MPD1    H7 3652   4.429   0.926  13.709
  241MPD1     C 3653   0.508   0.311  14.870
  241MPD1    C1 3654   0.542   0.399  14.767
  241MPD1    C2 3655   0.458   0.397  14.659
  241MPD1    C3 3656   0.351   0.315  14.645
  241MPD1    C4 3657   0.311   0.237  14.757
  241MPD1    C5 3658   0.397   0.233  14.859
  241MPD1     H 3659   0.473   0.478  14.588
  241MPD1    H1 3660   0.223   0.174  14.754
  241MPD1    H2 3661   0.577   0.300  14.953
  241MPD1    H3 3662   0.374   0.168  14.943
  241MPD1     N 3663   0.261   0.321  14.533
  241MPD1    H5 3664   0.169   0.280  14.531
  241MPD1    N1 3665   0.638   0.502  14.778
  241MPD1    H6 3666   0.709   0.477  14.847
  241MPD1    H7 3667   0.683   0.509  14.687
  242MPD1     C 3668   4.632   3.408  16.218
  242MPD1    C1 3669   4.761   3.369  16.195
  242MPD1    C2 3670   0.028   3.417  16.088
  242MPD1    C3 3671   4.770   3.493  15.991
  242MPD1    C4 3672   4.644   3.535  16.012
  242MPD1    C5 3673   4.574   3.488  16.124
  242MPD1     H 3674   0.130   3.383  16.069
  242MPD1    H1 3675   4.593   3.598  15.940
  242MPD1    H2 3676   4.569   3.365  16.295
  242MPD1    H3 3677   4.468   3.508  16.135
  242MPD1     N 3678   0.030   3.538  15.873
  242MPD1    H5 3679   4.785   3.595  15.805
  242MPD1    N1 3680   0.030   3.299  16.295
  242MPD1    H6 3681   0.111   3.245  16.265
  242MPD1    H7 3682   4.780   3.236  16.353
  243MPD1     C 3683   1.167   2.318  18.430
  243MPD1    C1 3684   1.152   2.210  18.350
  243MPD1    C2 3685   1.251   2.181  18.252
  243MPD1    C3 3686   1.349   2.270  18.227
  243MPD1    C4 3687   1.356   2.386  18.309
  243MPD1    C5 3688   1.271   2.407  18.412
  243MPD1     H 3689   1.247   2.085  18.201
  243MPD1    H1 3690   1.436   2.459  18.296
  243MPD1    H2 3691   1.091   2.324  18.507
  243MPD1    H3 3692   1.283   2.490  18.481
  243MPD1     N 3693   1.427   2.238  18.117
  243MPD1    H5 3694   1.414   2.149  18.070
  243MPD1    N1 3695   1.054   2.117  18.386
  243MPD1    H6 3696   1.033   2.057  18.306
  243MPD1    H7 3697   0.976   2.163  18.432
  244MPD1     C 3698   1.600   1.450  17.953
  244MPD1    C1 3699   1.497   1.521  18.010
  244MPD1    C2 3700   1.495   1.653  17.984
  244MPD1    C3 3701   1.574   1.716  17.890
  244MPD1    C4 3702   1.665   1.640  17.821
  244MPD1    C5 3703   1.672   1.503  17.855
  244MPD1     H 3704   1.438   1.723  18.044
  244MPD1    H1 3705   1.736   1.675  17.747
  244MPD1    H2 3706   1.626   1.349  17.983
  244MPD1    H3 3707   1.747   1.447  17.802
  244MPD1     N 3708   1.569   1.859  17.875
  244MPD1    H5 3709   1.501   1.914  17.928
  244MPD1    N1 3710   1.433   1.464  18.118
  244MPD1    H6 3711   1.338   1.495  18.140
  244MPD1    H7 3712   1.426   1.366  18.091
  245MPD1     C 3713   3.923   2.107  13.468
  245MPD1    C1 3714   3.936   2.123  13.604
  245MPD1    C2 3715   3.904   2.238  13.664
  245MPD1    C3 3716   3.870   2.354  13.593
  245MPD1    C4 3717   3.859   2.341  13.456
  245MPD1    C5 3718   3.883   2.218  13.399
  245MPD1     H 3719   3.888   2.231  13.771
  245MPD1    H1 3720   3.839   2.425  13.390
  245MPD1    H2 3721   3.941   2.013  13.416
  245MPD1    H3 3722   3.886   2.199  13.292
  245MPD1     N 3723   3.852   2.477  13.662
  245MPD1    H5 3724   3.879   2.473  13.760
  245MPD1    N1 3725   3.941   2.004  13.677
  245MPD1    H6 3726   3.972   2.013  13.773
  245MPD1    H7 3727   4.009   1.943  13.632
  246MPD1     C 3728   4.603   4.627   8.465
  246MPD1    C1 3729   4.484   4.620   8.544
  246MPD1    C2 3730   4.495   4.622   8.681
  246MPD1    C3 3731   4.622   4.602   8.729
  246MPD1    C4 3732   4.735   4.603   8.650
  246MPD1    C5 3733   4.727   4.620   8.519
  246MPD1     H 3734   4.410   4.647   8.744
  246MPD1    H1 3735   0.035   4.603   8.678
  246MPD1    H2 3736   4.596   4.626   8.356
  246MPD1    H3 3737   0.007   4.616   8.452
  246MPD1     N 3738   4.639   4.592   8.872
  246MPD1    H5 3739   4.560   4.595   8.936
  246MPD1    N1 3740   4.362   4.628   8.482
  246MPD1    H6 3741   4.361   4.592   8.387
  246MPD1    H7 3742   4.288   4.580   8.532
  247MPD1     C 3743   2.527   2.609  15.360
  247MPD1    C1 3744   2.581   2.742  15.348
  247MPD1    C2 3745   2.678   2.782  15.438
  247MPD1    C3 3746   2.720   2.704  15.541
  247MPD1    C4 3747   2.668   2.578  15.553
  247MPD1    C5 3748   2.569   2.534  15.466
  247MPD1     H 3749   2.729   2.874  15.412
  247MPD1    H1 3750   2.702   2.525  15.641
  247MPD1    H2 3751   2.450   2.574  15.292
  247MPD1    H3 3752   2.527   2.436  15.488
  247MPD1     N 3753   2.818   2.739  15.637
  247MPD1    H5 3754   2.850   2.659  15.692
  247MPD1    N1 3755   2.564   2.826  15.240
  247MPD1    H6 3756   2.469   2.815  15.206
  247MPD1    H7 3757   2.581   2.926  15.249
  248MPD1     C 3758   3.848   2.329  17.809
  248MPD1    C1 3759   3.743   2.410  17.842
  248MPD1    C2 3760   3.671   2.354  17.944
  248MPD1    C3 3761   3.710   2.255  18.029
  248MPD1    C4 3762   3.826   2.193  17.999
  248MPD1    C5 3763   3.891   2.228  17.883
  248MPD1     H 3764   3.578   2.406  17.965
  248MPD1    H1 3765   3.855   2.106  18.057
  248MPD1    H2 3766   3.910   2.361  17.725
  248MPD1    H3 3767   3.976   2.172  17.848
  248MPD1     N 3768   3.625   2.215  18.135
  248MPD1    H5 3769   3.537   2.262  18.154
  248MPD1    N1 3770   3.692   2.505  17.753
  248MPD1    H6 3771   3.764   2.544  17.693
  248MPD1    H7 3772   3.650   2.582  17.806
  249MPD1     C 3773   0.357   1.434  10.539
  249MPD1    C1 3774   0.462   1.429  10.630
  249MPD1    C2 3775   0.546   1.538  10.635
  249MPD1    C3 3776   0.536   1.643  10.550
  249MPD1    C4 3777   0.434   1.632  10.461
  249MPD1    C5 3778   0.340   1.538  10.450
  249MPD1     H 3779   0.627   1.538  10.706
  249MPD1    H1 3780   0.422   1.714  10.391
  249MPD1    H2 3781   0.282   1.357  10.533
  249MPD1    H3 3782   0.255   1.552  10.384
  249MPD1     N 3783   0.628   1.745  10.567
  249MPD1    H5 3784   0.694   1.740  10.644
  249MPD1    N1 3785   0.471   1.329  10.725
  249MPD1    H6 3786   0.397   1.352  10.791
  249MPD1    H7 3787   0.558   1.324  10.777
  250MPD2     C 3788   2.239   1.120  13.243
  250MPD2    C1 3789   2.138   1.212  13.264
  250MPD2    C2 3790   2.009   1.183  13.222
  250MPD2    C3 3791   1.978   1.054  13.169
  250MPD2    C4 3792   2.078   0.963  13.156
  250MPD2    C5 3793   2.209   0.999  13.193
  250MPD2     H 3794   1.929   1.256  13.227
  250MPD2    H1 3795   2.054   0.861  13.129
  250MPD2    H2 3796   2.341   1.135  13.277
  250MPD2    H3 3797   2.285   0.922  13.186
  250MPD2     N 3798   1.855   1.023  13.120
  250MPD2    H5 3799   1.847   0.930  13.080
  250MPD2    N1 3800   2.175   1.330  13.339
  250MPD2    H7 3801   2.274   1.348  13.355
  251TMC3    C1 3802   2.151   1.547  13.443
  251TMC3    C2 3803   2.079   1.663  13.429
  251TMC3    C3 3804   2.152   1.778  13.446
  251TMC3    C4 3805   2.277   1.549  13.481
  251TMC3    C5 3806   2.350   1.658  13.503
  251TMC3    C6 3807   2.289   1.779  13.468
  251TMC3     C 3808   2.091   1.434  13.376
  251TMC3     O 3809   1.973   1.439  13.359
  251TMC3     H 3810   1.970   1.663  13.426
  251TMC3    H1 3811   2.315   1.453  13.513
  251TMC3    H2 3812   2.341   1.874  13.477
  251TMC3    C7 3813   2.493   1.642  13.516
  251TMC3    C8 3814   2.069   1.892  13.462
  251TMC3    O1 3815   2.540   1.528  13.516
  251TMC3    O2 3816   1.954   1.872  13.501
  252TMC3    C1 3817   1.787   3.251   9.517
  252TMC3    C2 3818   1.891   3.277   9.595
  252TMC3    C3 3819   1.902   3.205   9.715
  252TMC3    C4 3820   1.702   3.156   9.549
  252TMC3    C5 3821   1.725   3.081   9.658
  252TMC3    C6 3822   1.822   3.101   9.745
  252TMC3     C 3823   1.798   3.291   9.378
  252TMC3     O 3824   1.770   3.209   9.290
  252TMC3     H 3825   1.955   3.358   9.563
  252TMC3    H1 3826   1.624   3.134   9.477
  252TMC3    H2 3827   1.832   3.046   9.837
  252TMC3    C7 3828   1.622   2.995   9.693
  252TMC3    C8 3829   2.016   3.248   9.790
  252TMC3    O1 3830   1.510   3.014   9.648
  252TMC3    O2 3831   2.057   3.362   9.765
  253MPD2     C 3832   3.113   1.260  15.477
  253MPD2    C1 3833   2.984   1.306  15.509
  253MPD2    C2 3834   2.959   1.357  15.632
  253MPD2    C3 3835   3.067   1.374  15.715
  253MPD2    C4 3836   3.194   1.335  15.682
  253MPD2    C5 3837   3.217   1.284  15.567
  253MPD2     H 3838   2.858   1.384  15.659
  253MPD2    H1 3839   3.275   1.348  15.753
  253MPD2    H2 3840   3.139   1.222  15.379
  253MPD2    H3 3841   3.320   1.266  15.537
  253MPD2     N 3842   3.048   1.427  15.849
  253MPD2    H5 3843   3.128   1.420  15.911
  253MPD2    N1 3844   2.875   1.310  15.411
  253MPD2    H7 3845   2.781   1.319  15.448
  254TMC3    C1 3846   2.928   1.491  16.046
  254TMC3    C2 3847   2.804   1.525  16.096
  254TMC3    C3 3848   2.788   1.511  16.231
  254TMC3    C4 3849   3.029   1.436  16.126
  254TMC3    C5 3850   3.004   1.422  16.261
  254TMC3    C6 3851   2.883   1.450  16.310
  254TMC3     C 3852   2.927   1.472  15.902
  254TMC3     O 3853   2.825   1.514  15.845
  254TMC3     H 3854   2.725   1.565  16.034
  254TMC3    H1 3855   3.122   1.394  16.090
  254TMC3    H2 3856   2.868   1.425  16.415
  254TMC3    C7 3857   3.088   1.343  16.347
  254TMC3    C8 3858   2.677   1.579  16.296
  254TMC3    O1 3859   3.035   1.283  16.437
  254TMC3    O2 3860   2.689   1.578  16.420
  255MPD2     C 3861   0.980   4.188  10.733
  255MPD2    C1 3862   1.106   4.230  10.744
  255MPD2    C2 3863   1.210   4.136  10.725
  255MPD2    C3 3864   1.183   4.008  10.675
  255MPD2    C4 3865   1.051   3.972  10.662
  255MPD2    C5 3866   0.952   4.058  10.701
  255MPD2     H 3867   1.316   4.157  10.737
  255MPD2    H1 3868   1.018   3.880  10.615
  255MPD2    H2 3869   0.896   4.253  10.757
  255MPD2    H3 3870   0.851   4.020  10.685
  255MPD2     N 3871   1.295   3.917  10.648
  255MPD2    H5 3872   1.388   3.951  10.669
  255MPD2    N1 3873   1.124   4.365  10.793
  255MPD2    H7 3874   1.043   4.424  10.809
  256TMC3    C1 3875   1.232   4.580  10.810
  256TMC3    C2 3876   1.313   4.656  10.727
  256TMC3    C3 3877   1.267   4.775  10.689
  256TMC3    C4 3878   1.112   4.619  10.857
  256TMC3    C5 3879   1.064   4.739  10.813
  256TMC3    C6 3880   1.142   0.011  10.734
  256TMC3     C 3881   1.244   4.432  10.789
  256TMC3     O 3882   1.353   4.388  10.753
  256TMC3     H 3883   1.410   4.621  10.692
  256TMC3    H1 3884   1.057   4.560  10.928
  256TMC3    H2 3885   1.103   0.098  10.683
  256TMC3    C7 3886   0.925   4.714  10.780
  256TMC3    C8 3887   1.315   0.009  10.557
  256TMC3    O1 3888   0.884   4.599  10.773
  256TMC3    O2 3889   1.358   4.724  10.486
  257MPD2     C 3890   0.662   1.572  13.394
  257MPD2    C1 3891   0.606   1.473  13.314
  257MPD2    C2 3892   0.561   1.351  13.369
  257MPD2    C3 3893   0.556   1.338  13.505
  257MPD2    C4 3894   0.605   1.441  13.585
  257MPD2    C5 3895   0.657   1.551  13.527
  257MPD2     H 3896   0.533   1.273  13.300
  257MPD2    H1 3897   0.606   1.437  13.693
  257MPD2    H2 3898   0.718   1.658  13.358
  257MPD2    H3 3899   0.706   1.625  13.589
  257MPD2     N 3900   0.507   1.214  13.566
  257MPD2    H5 3901   0.471   1.152  13.494
  257MPD2    N1 3902   0.623   1.495  13.176
  257MPD2    H7 3903   0.658   1.586  13.145
  258TMC3    C1 3904   0.477   1.043  13.726
  258TMC3    C2 3905   0.551   0.961  13.642
  258TMC3    C3 3906   0.558   0.831  13.679
  258TMC3    C4 3907   0.437   0.999  13.855
  258TMC3    C5 3908   0.464   0.868  13.886
  258TMC3    C6 3909   0.517   0.778  13.799
  258TMC3     C 3910   0.488   1.186  13.696
  258TMC3     O 3911   0.496   1.265  13.792
  258TMC3     H 3912   0.591   0.993  13.546
  258TMC3    H1 3913   0.405   1.077  13.923
  258TMC3    H2 3914   0.515   0.671  13.816
  258TMC3    C7 3915   0.449   0.837  14.028
  258TMC3    C8 3916   0.623   0.738  13.585
  258TMC3    O1 3917   0.362   0.887  14.096
  258TMC3    O2 3918   0.572   0.629  13.566
  259MPD2     C 3919   4.054   2.560  18.565
  259MPD2    C1 3920   4.134   2.457  18.619
  259MPD2    C2 3921   4.263   2.445  18.576
  259MPD2    C3 3922   4.310   2.539  18.482
  259MPD2    C4 3923   4.216   2.619  18.415
  259MPD2    C5 3924   4.090   2.633  18.458
  259MPD2     H 3925   4.329   2.380  18.631
  259MPD2    H1 3926   4.254   2.687  18.340
  259MPD2    H2 3927   3.956   2.574  18.609
  259MPD2    H3 3928   4.025   2.707  18.411
  259MPD2     N 3929   4.446   2.547  18.460
  259MPD2    H5 3930   4.508   2.496  18.522
  259MPD2    N1 3931   4.086   2.386  18.733
  259MPD2    H7 3932   4.006   2.429  18.778
  260TMC3    C1 3933   4.651   2.641  18.414
  260TMC3    C2 3934   4.749   2.662  18.322
  260TMC3    C3 3935   0.078   2.656  18.356
  260TMC3    C4 3936   4.688   2.623  18.545
  260TMC3    C5 3937   0.012   2.604  18.584
  260TMC3    C6 3938   0.109   2.620  18.488
  260TMC3     C 3939   4.515   2.636  18.381
  260TMC3     O 3940   4.472   2.711  18.293
  260TMC3     H 3941   4.723   2.666  18.217
  260TMC3    H1 3942   4.611   2.626  18.621
  260TMC3    H2 3943   0.208   2.583  18.513
  260TMC3    C7 3944   0.032   2.474  18.651
  260TMC3    C8 3945   0.150   2.577  18.258
  260TMC3    O1 3946   0.109   2.394  18.592
  260TMC3    O2 3947   0.183   2.625  18.150
  261MPD2     C 3948   1.414   0.903  12.517
  261MPD2    C1 3949   1.450   1.006  12.605
  261MPD2    C2 3950   1.444   1.134  12.549
  261MPD2    C3 3951   1.405   1.153  12.417
  261MPD2    C4 3952   1.372   1.046  12.337
  261MPD2    C5 3953   1.375   0.921  12.393
  261MPD2     H 3954   1.467   1.221  12.610
  261MPD2    H1 3955   1.328   1.068  12.241
  261MPD2    H2 3956   1.425   0.800  12.547
  261MPD2    H3 3957   1.324   0.848  12.331
  261MPD2     N 3958   1.385   1.284  12.360
  261MPD2    H5 3959   1.432   1.363  12.404
  261MPD2    N1 3960   1.491   0.990  12.739
  261MPD2    H7 3961   1.537   1.068  12.785
  262TMC3    C1 3962   1.306   1.458  12.232
  262TMC3    C2 3963   1.186   1.493  12.163
  262TMC3    C3 3964   1.197   1.532  12.030
  262TMC3    C4 3965   1.425   1.481  12.170
  262TMC3    C5 3966   1.431   1.527  12.041
  262TMC3    C6 3967   1.317   1.540  11.961
  262TMC3     C 3968   1.298   1.319  12.259
  262TMC3     O 3969   1.201   1.264  12.208
  262TMC3     H 3970   1.087   1.470  12.202
  262TMC3    H1 3971   1.518   1.467  12.225
  262TMC3    H2 3972   1.326   1.561  11.855
  262TMC3    C7 3973   1.546   1.602  11.997
  262TMC3    C8 3974   1.108   1.634  11.995
  262TMC3    O1 3975   1.646   1.608  12.070
  262TMC3    O2 3976   1.054   1.690  12.088
  263MPD2     C 3977   2.292   0.832  12.192
  263MPD2    C1 3978   2.384   0.835  12.088
  263MPD2    C2 3979   2.381   0.937  11.988
  263MPD2    C3 3980   2.279   1.026  12.000
  263MPD2    C4 3981   2.179   1.017  12.092
  263MPD2    C5 3982   2.189   0.920  12.193
  263MPD2     H 3983   2.445   0.946  11.901
  263MPD2    H1 3984   2.092   1.081  12.091
  263MPD2    H2 3985   2.310   0.766  12.277
  263MPD2    H3 3986   2.118   0.925  12.275
  263MPD2     N 3987   2.267   1.115  11.892
  263MPD2    H5 3988   2.330   1.095  11.815
  263MPD2    N1 3989   2.479   0.734  12.079
  263MPD2    H7 3990   2.481   0.664  12.152
  264TMC3    C1 3991   2.215   1.290  11.767
  264TMC3    C2 3992   2.210   1.426  11.757
  264TMC3    C3 3993   2.236   1.479  11.638
  264TMC3    C4 3994   2.247   1.210  11.655
  264TMC3    C5 3995   2.276   1.278  11.536
  264TMC3    C6 3996   2.259   1.407  11.525
  264TMC3     C 3997   2.185   1.225  11.887
  264TMC3     O 3998   2.135   1.286  11.980
  264TMC3     H 3999   2.162   1.468  11.845
  264TMC3    H1 4000   2.224   1.104  11.649
  264TMC3    H2 4001   2.286   1.457  11.433
  264TMC3    C7 4002   2.388   1.224  11.461
  264TMC3    C8 4003   2.344   1.578  11.648
  264TMC3    O1 4004   2.425   1.277  11.355
  264TMC3    O2 4005   2.432   1.565  11.567
  265MPD2     C 4006   4.298   0.770  15.815
  265MPD2    C1 4007   4.317   0.886  15.741
  265MPD2    C2 4008   4.355   0.864  15.614
  265MPD2    C3 4009   4.381   0.739  15.563
  265MPD2    C4 4010   4.366   0.631  15.642
  265MPD2    C5 4011   4.327   0.650  15.768
  265MPD2     H 4012   4.378   0.953  15.557
  265MPD2    H1 4013   4.385   0.529  15.609
  265MPD2    H2 4014   4.274   0.784  15.920
  265MPD2    H3 4015   4.292   0.567  15.830
  265MPD2     N 4016   4.439   0.725  15.434
  265MPD2    H5 4017   4.425   0.635  15.390
  265MPD2    N1 4018   4.292   1.024  15.786
  265MPD2    H7 4019   4.311   1.102  15.725
  266TMC3    C1 4020   4.294   1.202  15.944
  266TMC3    C2 4021   4.333   1.238  16.068
  266TMC3    C3 4022   4.343   1.369  16.094
  266TMC3    C4 4023   4.258   1.296  15.851
  266TMC3    C5 4024   4.261   1.429  15.882
  266TMC3    C6 4025   4.291   1.464  16.011
  266TMC3     C 4026   4.269   1.057  15.917
  266TMC3     O 4027   4.244   0.987  16.014
  266TMC3     H 4028   4.359   1.165  16.143
  266TMC3    H1 4029   4.200   1.267  15.764
  266TMC3    H2 4030   4.282   1.570  16.033
  266TMC3    C7 4031   4.220   1.521  15.775
  266TMC3    C8 4032   4.437   1.401  16.200
  266TMC3    O1 4033   4.184   1.470  15.671
  266TMC3    O2 4034   4.527   1.319  16.217
  267MPD2     C 4035   1.300   2.783  18.221
  267MPD2    C1 4036   1.357   2.892  18.161
  267MPD2    C2 4037   1.272   2.958  18.068
  267MPD2    C3 4038   1.145   2.915  18.040
  267MPD2    C4 4039   1.097   2.801  18.090
  267MPD2    C5 4040   1.176   2.733  18.182
  267MPD2     H 4041   1.308   3.043  18.010
  267MPD2    H1 4042   1.006   2.760  18.047
  267MPD2    H2 4043   1.358   2.717  18.285
  267MPD2    H3 4044   1.138   2.640  18.225
  267MPD2     N 4045   1.066   2.973  17.937
  267MPD2    H5 4046   0.990   2.921  17.894
  267MPD2    N1 4047   1.489   2.931  18.182
  267MPD2    H7 4048   1.539   2.864  18.239
  268TMC3    C1 4049   1.689   3.039  18.176
  268TMC3    C2 4050   1.779   3.085  18.090
  268TMC3    C3 4051   1.913   3.056  18.111
  268TMC3    C4 4052   1.720   2.970  18.294
  268TMC3    C5 4053   1.855   2.955  18.319
  268TMC3    C6 4054   1.950   3.001  18.234
  268TMC3     C 4055   1.557   3.035  18.133
  268TMC3     O 4056   1.518   3.128  18.063
  268TMC3     H 4057   1.747   3.136  18.000
  268TMC3    H1 4058   1.643   2.954  18.368
  268TMC3    H2 4059   2.052   2.966  18.250
  268TMC3    C7 4060   1.901   2.882  18.439
  268TMC3    C8 4061   2.015   3.136  18.053
  268TMC3    O1 4062   2.015   2.835  18.436
  268TMC3    O2 4063   2.104   3.149  18.135
  269MPD2     C 4064   2.144   1.551  15.844
  269MPD2    C1 4065   2.042   1.618  15.915
  269MPD2    C2 4066   2.018   1.755  15.884
  269MPD2    C3 4067   2.099   1.815  15.790
  269MPD2    C4 4068   2.201   1.750  15.727
  269MPD2    C5 4069   2.229   1.620  15.759
  269MPD2     H 4070   1.939   1.808  15.936
  269MPD2    H1 4071   2.272   1.805  15.667
  269MPD2    H2 4072   2.177   1.449  15.862
  269MPD2    H3 4073   2.311   1.570  15.707
  269MPD2     N 4074   2.062   1.951  15.769
  269MPD2    H5 4075   1.980   1.994  15.810
  269MPD2    N1 4076   1.977   1.553  16.015
  269MPD2    H7 4077   2.006   1.457  16.029
  270TMC3    C1 4078   1.815   1.492  16.178
  270TMC3    C2 4079   1.686   1.460  16.168
  270TMC3    C3 4080   1.656   1.331  16.208
  270TMC3    C4 4081   1.901   1.416  16.246
  270TMC3    C5 4082   1.871   1.293  16.290
  270TMC3    C6 4083   1.739   1.252  16.287
  270TMC3     C 4084   1.866   1.605  16.091
  270TMC3     O 4085   1.804   1.705  16.088
  270TMC3     H 4086   1.618   1.510  16.099
  270TMC3    H1 4087   2.006   1.441  16.240
  270TMC3    H2 4088   1.711   1.152  16.315
  270TMC3    C7 4089   1.962   1.194  16.231
  270TMC3    C8 4090   1.587   1.242  16.117
  270TMC3    O1 4091   2.082   1.205  16.252
  270TMC3    O2 4092   1.629   1.126  16.113
  271MPD2     C 4093   1.350   1.522  14.350
  271MPD2    C1 4094   1.258   1.489  14.448
  271MPD2    C2 4095   1.128   1.533  14.434
  271MPD2    C3 4096   1.091   1.616  14.327
  271MPD2    C4 4097   1.185   1.635  14.224
  271MPD2    C5 4098   1.314   1.594  14.243
  271MPD2     H 4099   1.060   1.497  14.510
  271MPD2    H1 4100   1.152   1.684  14.133
  271MPD2    H2 4101   1.458   1.513  14.359
  271MPD2    H3 4102   1.391   1.602  14.167
  271MPD2     N 4103   0.962   1.668  14.301
  271MPD2    H5 4104   0.941   1.724  14.219
  271MPD2    N1 4105   1.284   1.397  14.548
  271MPD2    H7 4106   1.203   1.380  14.607
  272TMC3    C1 4107   1.376   1.199  14.636
  272TMC3    C2 4108   1.493   1.129  14.669
  272TMC3    C3 4109   1.496   1.048  14.773
  272TMC3    C4 4110   1.267   1.181  14.712
  272TMC3    C5 4111   1.271   1.095  14.820
  272TMC3    C6 4112   1.389   1.027  14.858
  272TMC3     C 4113   1.388   1.308  14.551
  272TMC3     O 4114   1.494   1.310  14.486
  272TMC3     H 4115   1.587   1.133  14.616
  272TMC3    H1 4116   1.170   1.221  14.688
  272TMC3    H2 4117   1.392   0.955  14.939
  272TMC3    C7 4118   1.179   1.130  14.926
  272TMC3    C8 4119   1.592   0.937  14.764
  272TMC3    O1 4120   1.079   1.192  14.896
  272TMC3    O2 4121   1.642   0.917  14.654
  273MPD2     C 4122   2.538   4.439  11.894
  273MPD2    C1 4123   2.659   4.486  11.854
  273MPD2    C2 4124   2.687   4.473  11.723
  273MPD2    C3 4125   2.598   4.424  11.627
  273MPD2    C4 4126   2.466   4.403  11.665
  273MPD2    C5 4127   2.438   4.411  11.799
  273MPD2     H 4128   2.776   4.522  11.688
  273MPD2    H1 4129   2.387   4.361  11.603
  273MPD2    H2 4130   2.510   4.427  11.998
  273MPD2    H3 4131   2.341   4.384  11.839
  273MPD2     N 4132   2.634   4.416  11.488
  273MPD2    H5 4133   2.561   4.413  11.417
  273MPD2    N1 4134   2.753   4.545  11.944
  273MPD2    H7 4135   2.745   4.519  12.042
  274TMC3    C1 4136   2.793   4.514  11.326
  274TMC3    C2 4137   2.683   4.561  11.253
  274TMC3    C3 4138   2.707   4.685  11.192
  274TMC3    C4 4139   2.900   4.601  11.350
  274TMC3    C5 4140   2.891   4.732  11.311
  274TMC3    C6 4141   2.803   4.772  11.212
  274TMC3     C 4142   2.765   4.430  11.449
  274TMC3     O 4143   2.866   4.401  11.511
  274TMC3     H 4144   2.600   4.504  11.213
  274TMC3    H1 4145   2.973   4.568  11.423
  274TMC3    H2 4146   2.790   0.071  11.183
  274TMC3    C7 4147   2.926   0.033  11.397
  274TMC3    C8 4148   2.620   4.717  11.086
  274TMC3    O1 4149   2.854   0.130  11.390
  274TMC3    O2 4150   2.505   4.672  11.095
  275MPD2     C 4151   2.753   1.986  14.769
  275MPD2    C1 4152   2.690   2.034  14.884
  275MPD2    C2 4153   2.556   2.002  14.908
  275MPD2    C3 4154   2.486   1.924  14.814
  275MPD2    C4 4155   2.554   1.863  14.708
  275MPD2    C5 4156   2.687   1.894  14.694
  275MPD2     H 4157   2.513   2.022  15.005
  275MPD2    H1 4158   2.514   1.800  14.630
  275MPD2    H2 4159   2.857   2.016  14.758
  275MPD2    H3 4160   2.744   1.856  14.610
  275MPD2     N 4161   2.349   1.891  14.834
  275MPD2    H5 4162   2.308   1.816  14.780
  275MPD2    N1 4163   2.749   2.137  14.970
  275MPD2    H7 4164   2.681   2.173  15.036
  276TMC3    C1 4165   2.892   2.272  15.087
  276TMC3    C2 4166   2.799   2.252  15.188
  276TMC3    C3 4167   2.838   2.289  15.315
  276TMC3    C4 4168   3.025   2.317  15.110
  276TMC3    C5 4169   3.064   2.323  15.240
  276TMC3    C6 4170   2.969   2.318  15.339
  276TMC3     C 4171   2.874   2.189  14.965
  276TMC3     O 4172   2.958   2.180  14.878
  276TMC3     H 4173   2.696   2.220  15.174
  276TMC3    H1 4174   3.093   2.332  15.027
  276TMC3    H2 4175   2.999   2.330  15.443
  276TMC3    C7 4176   3.204   2.318  15.272
  276TMC3    C8 4177   2.773   2.209  15.413
  276TMC3    O1 4178   3.228   2.355  15.386
  276TMC3    O2 4179   2.780   2.243  15.530
  277MPD2     C 4180   0.072   1.403  13.581
  277MPD2    C1 4181   4.740   1.394  13.577
  277MPD2    C2 4182   4.672   1.325  13.678
  277MPD2    C3 4183   4.736   1.261  13.780
  277MPD2    C4 4184   0.071   1.266  13.784
  277MPD2    C5 4185   0.139   1.332  13.682
  277MPD2     H 4186   4.565   1.309  13.685
  277MPD2    H1 4187   0.125   1.236  13.872
  277MPD2    H2 4188   0.130   1.458  13.507
  277MPD2    H3 4189   0.247   1.341  13.686
  277MPD2     N 4190   4.654   1.208  13.871
  277MPD2    H5 4191   4.554   1.218  13.857
  277MPD2    N1 4192   4.675   1.457  13.471
  277MPD2    H7 4193   4.729   1.530  13.425
  278TMC3    C1 4194   4.572   1.118  14.067
  278TMC3    C2 4195   4.556   0.983  14.099
  278TMC3    C3 4196   4.429   0.928  14.083
  278TMC3    C4 4197   4.465   1.191  14.033
  278TMC3    C5 4198   4.345   1.137  14.043
  278TMC3    C6 4199   4.318   1.003  14.054
  278TMC3     C 4200   4.692   1.157  13.996
  278TMC3     O 4201   4.800   1.099  14.027
  278TMC3     H 4202   4.639   0.914  14.112
  278TMC3    H1 4203   4.484   1.295  14.010
  278TMC3    H2 4204   4.218   0.961  14.049
  278TMC3    C7 4205   4.228   1.223  14.004
  278TMC3    C8 4206   4.440   0.781  14.072
  278TMC3    O1 4207   4.244   1.319  13.929
  278TMC3    O2 4208   4.529   0.716  14.120
  279MPD2     C 4209   3.649   0.881  18.273
  279MPD2    C1 4210   3.686   1.013  18.264
  279MPD2    C2 4211   3.762   1.059  18.155
  279MPD2    C3 4212   3.806   0.974  18.055
  279MPD2    C4 4213   3.765   0.836  18.067
  279MPD2    C5 4214   3.698   0.793  18.180
  279MPD2     H 4215   3.800   1.161  18.153
  279MPD2    H1 4216   3.788   0.772  17.983
  279MPD2    H2 4217   3.595   0.844  18.359
  279MPD2    H3 4218   3.674   0.687  18.186
  279MPD2     N 4219   3.867   1.015  17.937
  279MPD2    H5 4220   3.850   0.953  17.858
  279MPD2    N1 4221   3.621   1.088  18.358
  279MPD2    H7 4222   3.549   1.039  18.410
  280TMC3    C1 4223   3.499   1.288  18.376
  280TMC3    C2 4224   3.414   1.216  18.289
  280TMC3    C3 4225   3.346   1.279  18.190
  280TMC3    C4 4226   3.507   1.422  18.367
  280TMC3    C5 4227   3.430   1.481  18.275
  280TMC3    C6 4228   3.350   1.411  18.189
  280TMC3     C 4229   3.634   1.228  18.374
  280TMC3     O 4230   3.723   1.304  18.345
  280TMC3     H 4231   3.410   1.108  18.298
  280TMC3    H1 4232   3.578   1.467  18.436
  280TMC3    H2 4233   3.304   1.451  18.100
  280TMC3    C7 4234   3.491   1.594  18.209
  280TMC3    C8 4235   3.366   1.204  18.057
  280TMC3    O1 4236   3.600   1.637  18.252
  280TMC3    O2 4237   3.380   1.271  17.958
  281TMC3    C1 4238   2.725   1.361  13.784
  281TMC3    C2 4239   2.805   1.439  13.701
  281TMC3    C3 4240   2.850   1.387  13.579
  281TMC3    C4 4241   2.684   1.234  13.741
  281TMC3    C5 4242   2.726   1.187  13.618
  281TMC3    C6 4243   2.811   1.261  13.535
  281TMC3     C 4244   2.626   1.415  13.879
  281TMC3     O 4245   2.569   1.335  13.949
  281TMC3     H 4246   2.838   1.535  13.741
  281TMC3    H1 4247   2.607   1.182  13.796
  281TMC3    H2 4248   2.862   1.215  13.451
  281TMC3    C7 4249   2.650   1.080  13.551
  281TMC3    C8 4250   2.979   1.435  13.516
  281TMC3    O1 4251   2.706   1.015  13.466
  281TMC3    O2 4252   3.055   1.349  13.472
  282MPD2     C 4253   4.617   2.723  15.303
  282MPD2    C1 4254   4.501   2.794  15.326
  282MPD2    C2 4255   4.425   2.836  15.216
  282MPD2    C3 4256   4.464   2.810  15.087
  282MPD2    C4 4257   4.574   2.732  15.067
  282MPD2    C5 4258   4.650   2.694  15.171
  282MPD2     H 4259   4.330   2.885  15.229
  282MPD2    H1 4260   4.618   2.707  14.971
  282MPD2    H2 4261   4.684   2.675  15.374
  282MPD2    H3 4262   4.734   2.627  15.153
  282MPD2     N 4263   4.374   2.838  14.983
  282MPD2    H5 4264   4.281   2.872  15.007
  282MPD2    N1 4265   4.448   2.823  15.457
  282MPD2    H7 4266   4.379   2.897  15.465
  283TMC3    C1 4267   4.406   2.784  15.691
  283TMC3    C2 4268   4.391   2.915  15.723
  283TMC3    C3 4269   4.326   2.953  15.834
  283TMC3    C4 4270   4.349   2.686  15.767
  283TMC3    C5 4271   4.284   2.729  15.879
  283TMC3    C6 4272   4.276   2.859  15.916
  283TMC3     C 4273   4.473   2.748  15.571
  283TMC3     O 4274   4.528   2.640  15.565
  283TMC3     H 4275   4.432   2.992  15.659
  283TMC3    H1 4276   4.368   2.585  15.733
  283TMC3    H2 4277   4.221   2.888  16.005
  283TMC3    C7 4278   4.190   2.646  15.951
  283TMC3    C8 4279   4.295   3.092  15.863
  283TMC3    O1 4280   4.113   2.695  16.033
  283TMC3    O2 4281   4.232   3.109  15.968
  284MPD2     C 4282   2.236   2.373  12.097
  284MPD2    C1 4283   2.360   2.411  12.132
  284MPD2    C2 4284   2.437   2.338  12.221
  284MPD2    C3 4285   2.381   2.226  12.281
  284MPD2    C4 4286   2.254   2.184  12.241
  284MPD2    C5 4287   2.184   2.256  12.151
  284MPD2     H 4288   2.533   2.382  12.245
  284MPD2    H1 4289   2.212   2.090  12.276
  284MPD2    H2 4290   2.178   2.430  12.025
  284MPD2    H3 4291   2.090   2.226  12.107
  284MPD2     N 4292   2.461   2.130  12.349
  284MPD2    H5 4293   2.427   2.035  12.362
  284MPD2    N1 4294   2.425   2.524  12.080
  284MPD2    H7 4295   2.524   2.518  12.101
  285TMC3    C1 4296   2.489   2.681  11.934
  285TMC3    C2 4297   2.580   2.605  11.875
  285TMC3    C3 4298   2.692   2.661  11.818
  285TMC3    C4 4299   2.487   2.814  11.928
  285TMC3    C5 4300   2.600   2.868  11.872
  285TMC3    C6 4301   2.698   2.799  11.804
  285TMC3     C 4302   2.378   2.609  11.983
  285TMC3     O 4303   2.264   2.634  11.938
  285TMC3     H 4304   2.570   2.497  11.883
  285TMC3    H1 4305   2.412   2.873  11.979
  285TMC3    H2 4306   2.781   2.856  11.766
  285TMC3    C7 4307   2.638   2.984  11.949
  285TMC3    C8 4308   2.777   2.580  11.736
  285TMC3    O1 4309   2.569   3.083  11.929
  285TMC3    O2 4310   2.719   2.483  11.689
  286MPD2     C 4311   2.612   0.619  19.665
  286MPD2    C1 4312   2.582   0.617  19.533
  286MPD2    C2 4313   2.626   0.505  19.460
  286MPD2    C3 4314   2.675   0.387  19.528
  286MPD2    C4 4315   2.686   0.391  19.668
  286MPD2    C5 4316   2.679   0.515  19.727
  286MPD2     H 4317   2.610   0.498  19.353
  286MPD2    H1 4318   2.708   0.299  19.721
  286MPD2    H2 4319   2.606   0.708  19.727
  286MPD2    H3 4320   2.714   0.521  19.829
  286MPD2     N 4321   2.716   0.266  19.465
  286MPD2    H5 4322   2.745   0.193  19.528
  286MPD2    N1 4323   2.533   0.729  19.453
  286MPD2    H7 4324   2.523   0.722  19.352
  287TMC3    C1 4325   2.796   0.135  19.288
  287TMC3    C2 4326   2.760   0.078  19.169
  287TMC3    C3 4327   2.824   4.772  19.131
  287TMC3    C4 4328   2.909   0.097  19.356
  287TMC3    C5 4329   2.995   0.007  19.294
  287TMC3    C6 4330   2.943   4.730  19.194
  287TMC3     C 4331   2.728   0.257  19.326
  287TMC3     O 4332   2.704   0.336  19.240
  287TMC3     H 4333   2.671   0.114  19.118
  287TMC3    H1 4334   2.938   0.149  19.447
  287TMC3    H2 4335   2.993   4.650  19.141
  287TMC3    C7 4336   3.116   0.091  19.270
  287TMC3    C8 4337   2.823   4.736  18.990
  287TMC3    O1 4338   3.128   0.194  19.339
  287TMC3    O2 4339   2.838   4.619  18.959
  288TMC3    C1 4340   4.351   0.605  14.477
  288TMC3    C2 4341   4.251   0.589  14.567
  288TMC3    C3 4342   4.185   0.704  14.603
  288TMC3    C4 4343   4.386   0.726  14.421
  288TMC3    C5 4344   4.312   0.833  14.453
  288TMC3    C6 4345   4.213   0.826  14.546
  288TMC3     C 4346   4.451   0.502  14.467
  288TMC3     O 4347   4.426   0.396  14.525
  288TMC3     H 4348   4.246   0.493  14.616
  288TMC3    H1 4349   4.464   0.747  14.348
  288TMC3    H2 4350   4.160   0.916  14.577
  288TMC3    C7 4351   4.401   0.953  14.452
  288TMC3    C8 4352   4.137   0.712  14.744
  288TMC3    O1 4353   4.521   0.937  14.481
  288TMC3    O2 4354   4.116   0.818  14.792
  289MPD2     C 4355   4.607   4.771  14.518
  289MPD2    C1 4356   4.576   0.049  14.406
  289MPD2    C2 4357   4.459   0.033  14.337
  289MPD2    C3 4358   4.369   4.741  14.376
  289MPD2    C4 4359   4.402   4.650  14.474
  289MPD2    C5 4360   4.520   4.667  14.548
  289MPD2     H 4361   4.428   0.112  14.271
  289MPD2    H1 4362   4.338   4.567  14.503
  289MPD2    H2 4363   4.691   4.793  14.583
  289MPD2    H3 4364   4.541   4.595  14.626
  289MPD2     N 4365   4.243   4.713  14.314
  289MPD2    H5 4366   4.187   4.638  14.352
  289MPD2    N1 4367   4.662   0.156  14.373
  289MPD2    H7 4368   4.739   0.161  14.438
  290TMC3    C1 4369   4.041   4.759  14.202
  290TMC3    C2 4370   3.958   0.059  14.188
  290TMC3    C3 4371   3.828   0.038  14.161
  290TMC3    C4 4372   4.001   4.630  14.185
  290TMC3    C5 4373   3.870   4.611  14.154
  290TMC3    C6 4374   3.784   4.718  14.138
  290TMC3     C 4375   4.183   4.792  14.221
  290TMC3     O 4376   4.218   0.098  14.181
  290TMC3     H 4377   3.995   0.160  14.202
  290TMC3    H1 4378   4.077   4.553  14.186
  290TMC3    H2 4379   3.680   4.703  14.110
  290TMC3    C7 4380   3.808   4.480  14.161
  290TMC3    C8 4381   3.744   0.155  14.148
  290TMC3    O1 4382   3.703   4.478  14.092
  290TMC3    O2 4383   3.649   0.131  14.069
  291MPD2     C 4384   3.480   4.710  18.146
  291MPD2    C1 4385   3.593   4.635  18.174
  291MPD2    C2 4386   3.711   4.707  18.171
  291MPD2    C3 4387   3.707   0.045  18.154
  291MPD2    C4 4388   3.592   0.114  18.129
  291MPD2    C5 4389   3.481   0.039  18.114
  291MPD2     H 4390   3.804   4.652  18.183
  291MPD2    H1 4391   3.588   0.221  18.110
  291MPD2    H2 4392   3.378   4.673  18.140
  291MPD2    H3 4393   3.389   0.094  18.100
  291MPD2     N 4394   3.829   0.122  18.153
  291MPD2    H5 4395   3.826   0.224  18.145
  291MPD2    N1 4396   3.596   4.495  18.174
  291MPD2    H7 4397   3.684   4.453  18.204
  292TMC3    C1 4398   3.498   4.290  18.209
  292TMC3    C2 4399   3.537   4.274  18.337
  292TMC3    C3 4400   3.567   4.148  18.376
  292TMC3    C4 4401   3.472   4.186  18.121
  292TMC3    C5 4402   3.516   4.057  18.164
  292TMC3    C6 4403   3.560   4.040  18.291
  292TMC3     C 4404   3.475   4.423  18.154
  292TMC3     O 4405   3.379   4.441  18.071
  292TMC3     H 4406   3.541   4.353  18.412
  292TMC3    H1 4407   3.436   4.205  18.021
  292TMC3    H2 4408   3.599   3.943  18.320
  292TMC3    C7 4409   3.517   3.942  18.067
  292TMC3    C8 4410   3.562   4.114  18.515
  292TMC3    O1 4411   3.587   3.846  18.095
  292TMC3    O2 4412   3.616   4.196  18.590
  293MPD2     C 4413   0.802   1.163  12.731
  293MPD2    C1 4414   0.714   1.098  12.823
  293MPD2    C2 4415   0.734   1.116  12.960
  293MPD2    C3 4416   0.841   1.186  13.018
  293MPD2    C4 4417   0.929   1.242  12.927
  293MPD2    C5 4418   0.906   1.232  12.792
  293MPD2     H 4419   0.664   1.060  13.021
  293MPD2    H1 4420   1.017   1.297  12.959
  293MPD2    H2 4421   0.784   1.168  12.625
  293MPD2    H3 4422   0.967   1.281  12.716
  293MPD2     N 4423   0.859   1.193  13.161
  293MPD2    H5 4424   0.789   1.154  13.223
  293MPD2    N1 4425   0.604   1.020  12.762
  293MPD2    H7 4426   0.608   1.029  12.661
  294TMC3    C1 4427   0.377   0.946  12.752
  294TMC3    C2 4428   0.291   0.857  12.806
  294TMC3    C3 4429   0.193   0.802  12.731
  294TMC3    C4 4430   0.377   0.974  12.619
  294TMC3    C5 4431   0.287   0.906  12.542
  294TMC3    C6 4432   0.187   0.822  12.595
  294TMC3     C 4433   0.499   0.968  12.835
  294TMC3     O 4434   0.492   0.950  12.955
  294TMC3     H 4435   0.312   0.820  12.906
  294TMC3    H1 4436   0.446   1.049  12.581
  294TMC3    H2 4437   0.113   0.779  12.530
  294TMC3    C7 4438   0.286   0.939  12.403
  294TMC3    C8 4439   0.133   0.682  12.783
  294TMC3    O1 4440   0.192   0.903  12.340
  294TMC3    O2 4441   0.144   0.652  12.903
  295MPD2     C 4442   1.827   4.688  18.650
  295MPD2    C1 4443   1.706   4.746  18.662
  295MPD2    C2 4444   1.632   4.732  18.781
  295MPD2    C3 4445   1.668   4.631  18.871
  295MPD2    C4 4446   1.779   4.558  18.848
  295MPD2    C5 4447   1.855   4.582  18.737
  295MPD2     H 4448   1.536   4.783  18.790
  295MPD2    H1 4449   1.809   4.472  18.905
  295MPD2    H2 4450   1.879   4.688  18.555
  295MPD2    H3 4451   1.946   4.529  18.711
  295MPD2     N 4452   1.594   4.602  18.980
  295MPD2    H5 4453   1.619   4.514  19.023
  295MPD2    N1 4454   1.649   0.034  18.562
  295MPD2    H7 4455   1.552   0.063  18.570
  296TMC3    C1 4456   1.435   4.604  19.155
  296TMC3    C2 4457   1.398   4.687  19.256
  296TMC3    C3 4458   1.316   4.626  19.347
  296TMC3    C4 4459   1.361   4.489  19.128
  296TMC3    C5 4460   1.259   4.447  19.210
  296TMC3    C6 4461   1.240   4.508  19.335
  296TMC3     C 4462   1.479   4.673  19.033
  296TMC3     O 4463   1.429   4.783  19.006
  296TMC3     H 4464   1.447   4.779  19.282
  296TMC3    H1 4465   1.374   4.438  19.033
  296TMC3    H2 4466   1.172   4.469  19.410
  296TMC3    C7 4467   1.146   4.375  19.148
  296TMC3    C8 4468   1.296   4.684  19.481
  296TMC3    O1 4469   1.157   4.362  19.026
  296TMC3    O2 4470   1.353   4.615  19.562
  297MPD2     C 4471   3.297   1.728  16.636
  297MPD2    C1 4472   3.272   1.824  16.528
  297MPD2    C2 4473   3.374   1.902  16.492
  297MPD2    C3 4474   3.500   1.881  16.538
  297MPD2    C4 4475   3.521   1.782  16.634
  297MPD2    C5 4476   3.419   1.711  16.686
  297MPD2     H 4477   3.361   1.976  16.414
  297MPD2    H1 4478   3.614   1.776  16.689
  297MPD2    H2 4479   3.222   1.658  16.671
  297MPD2    H3 4480   3.428   1.631  16.758
  297MPD2     N 4481   3.599   1.982  16.503
  297MPD2    H5 4482   3.568   2.071  16.465
  297MPD2    N1 4483   3.146   1.846  16.479
  297MPD2    H7 4484   3.147   1.909  16.400
  298TMC3    C1 4485   2.926   1.839  16.441
  298TMC3    C2 4486   2.952   1.831  16.307
  298TMC3    C3 4487   2.845   1.868  16.231
  298TMC3    C4 4488   2.821   1.895  16.498
  298TMC3    C5 4489   2.718   1.940  16.416
  298TMC3    C6 4490   2.723   1.927  16.277
  298TMC3     C 4491   3.031   1.794  16.527
  298TMC3     O 4492   3.008   1.749  16.640
  298TMC3     H 4493   3.036   1.768  16.280
  298TMC3    H1 4494   2.817   1.911  16.605
  298TMC3    H2 4495   2.651   1.972  16.211
  298TMC3    C7 4496   2.597   1.993  16.488
  298TMC3    C8 4497   2.867   1.875  16.088
  298TMC3    O1 4498   2.605   1.994  16.611
  298TMC3    O2 4499   2.776   1.902  16.015
  299MPD2     C 4500   3.908   1.603  11.185
  299MPD2    C1 4501   3.923   1.675  11.068
  299MPD2    C2 4502   3.840   1.653  10.962
  299MPD2    C3 4503   3.727   1.572  10.978
  299MPD2    C4 4504   3.713   1.497  11.091
  299MPD2    C5 4505   3.799   1.516  11.194
  299MPD2     H 4506   3.857   1.701  10.866
  299MPD2    H1 4507   3.627   1.438  11.119
  299MPD2    H2 4508   3.981   1.605  11.265
  299MPD2    H3 4509   3.782   1.459  11.285
  299MPD2     N 4510   3.627   1.561  10.880
  299MPD2    H5 4511   3.558   1.494  10.913
  299MPD2    N1 4512   4.032   1.761  11.058
  299MPD2    H7 4513   4.095   1.767  11.138
  300TMC3    C1 4514   3.503   1.595  10.672
  300TMC3    C2 4515   3.484   1.685  10.567
  300TMC3    C3 4516   3.361   1.696  10.514
  300TMC3    C4 4517   3.406   1.514  10.718
  300TMC3    C5 4518   3.286   1.525  10.649
  300TMC3    C6 4519   3.261   1.613  10.552
  300TMC3     C 4520   3.617   1.629  10.758
  300TMC3     O 4521   3.681   1.725  10.718
  300TMC3     H 4522   3.559   1.759  10.540
  300TMC3    H1 4523   3.407   1.437  10.795
  300TMC3    H2 4524   3.169   1.606  10.495
  300TMC3    C7 4525   3.177   1.466  10.724
  300TMC3    C8 4526   3.327   1.832  10.491
  300TMC3    O1 4527   3.106   1.380  10.677
  300TMC3    O2 4528   3.414   1.915  10.470
  301MPD2     C 4529   1.440   3.144  18.919
  301MPD2    C1 4530   1.468   3.201  19.038
  301MPD2    C2 4531   1.515   3.119  19.136
  301MPD2    C3 4532   1.538   2.981  19.114
  301MPD2    C4 4533   1.527   2.935  18.985
  301MPD2    C5 4534   1.480   3.015  18.889
  301MPD2     H 4535   1.521   3.168  19.233
  301MPD2    H1 4536   1.560   2.835  18.958
  301MPD2    H2 4537   1.418   3.205  18.831
  301MPD2    H3 4538   1.458   2.973  18.792
  301MPD2     N 4539   1.566   2.892  19.220
  301MPD2    H5 4540   1.592   2.796  19.198
  301MPD2    N1 4541   1.449   3.338  19.072
  301MPD2    H7 4542   1.483   3.365  19.164
  302TMC3    C1 4543   1.501   2.783  19.419
  302TMC3    C2 4544   1.595   2.685  19.445
  302TMC3    C3 4545   1.549   2.571  19.511
  302TMC3    C4 4546   1.366   2.751  19.445
  302TMC3    C5 4547   1.326   2.643  19.521
  302TMC3    C6 4548   1.427   2.563  19.567
  302TMC3     C 4549   1.525   2.914  19.351
  302TMC3     O 4550   1.472   3.013  19.400
  302TMC3     H 4551   1.699   2.695  19.416
  302TMC3    H1 4552   1.298   2.834  19.427
  302TMC3    H2 4553   1.403   2.474  19.624
  302TMC3    C7 4554   1.229   2.557  19.451
  302TMC3    C8 4555   1.644   2.464  19.516
  302TMC3    O1 4556   1.262   2.440  19.434
  302TMC3    O2 4557   1.599   2.349  19.517
  303MPD2     C 4558   1.583   1.344  10.919
  303MPD2    C1 4559   1.454   1.298  10.963
  303MPD2    C2 4560   1.356   1.307  10.869
  303MPD2    C3 4561   1.373   1.341  10.738
  303MPD2    C4 4562   1.495   1.400  10.702
  303MPD2    C5 4563   1.590   1.402  10.793
  303MPD2     H 4564   1.259   1.260  10.879
  303MPD2    H1 4565   1.511   1.439  10.602
  303MPD2    H2 4566   1.674   1.332  10.978
  303MPD2    H3 4567   1.689   1.433  10.760
  303MPD2     N 4568   1.284   1.322  10.634
  303MPD2    H5 4569   1.305   1.369  10.547
  303MPD2    N1 4570   1.441   1.234  11.091
  303MPD2    H7 4571   1.520   1.195  11.141
  304TMC3    C1 4572   1.314   1.132  11.266
  304TMC3    C2 4573   1.199   1.147  11.333
  304TMC3    C3 4574   1.170   1.051  11.422
  304TMC3    C4 4575   1.397   1.018  11.279
  304TMC3    C5 4576   1.363   0.926  11.371
  304TMC3    C6 4577   1.250   0.944  11.450
  304TMC3     C 4578   1.316   1.203  11.138
  304TMC3     O 4579   1.208   1.250  11.108
  304TMC3     H 4580   1.127   1.227  11.320
  304TMC3    H1 4581   1.459   1.003  11.192
  304TMC3    H2 4582   1.218   0.871  11.524
  304TMC3    C7 4583   1.384   0.785  11.346
  304TMC3    C8 4584   1.030   1.015  11.415
  304TMC3    O1 4585   1.416   0.753  11.232
  304TMC3    O2 4586   0.995   1.007  11.296
  305MPD2     C 4587   4.597   3.346  14.162
  305MPD2    C1 4588   4.549   3.219  14.191
  305MPD2    C2 4589   4.522   3.135  14.086
  305MPD2    C3 4590   4.553   3.177  13.960
  305MPD2    C4 4591   4.600   3.302  13.926
  305MPD2    C5 4592   4.619   3.385  14.034
  305MPD2     H 4593   4.469   3.040  14.091
  305MPD2    H1 4594   4.623   3.339  13.828
  305MPD2    H2 4595   4.619   3.421  14.238
  305MPD2    H3 4596   4.668   3.475  13.999
  305MPD2     N 4597   4.543   3.091  13.850
  305MPD2    H5 4598   4.568   3.130  13.760
  305MPD2    N1 4599   4.545   3.180  14.330
  305MPD2    H7 4600   4.568   3.257  14.392
  306TMC3    C1 4601   4.583   3.047  14.520
  306TMC3    C2 4602   4.646   2.938  14.556
  306TMC3    C3 4603   4.704   2.937  14.684
  306TMC3    C4 4604   4.555   3.151  14.613
  306TMC3    C5 4605   4.612   3.135  14.741
  306TMC3    C6 4606   4.694   3.037  14.771
  306TMC3     C 4607   4.542   3.052  14.380
  306TMC3     O 4608   4.498   2.951  14.328
  306TMC3     H 4609   4.661   2.856  14.486
  306TMC3    H1 4610   4.487   3.233  14.594
  306TMC3    H2 4611   4.723   3.012  14.872
  306TMC3    C7 4612   4.541   3.189  14.854
  306TMC3    C8 4613   4.769   2.807  14.713
  306TMC3    O1 4614   4.419   3.192  14.855
  306TMC3    O2 4615   4.747   2.710  14.639
  307MPD2     C 4616   1.934   1.040  18.416
  307MPD2    C1 4617   2.049   1.083  18.464
  307MPD2    C2 4618   2.059   1.129  18.595
  307MPD2    C3 4619   1.950   1.140  18.672
  307MPD2    C4 4620   1.829   1.098  18.620
  307MPD2    C5 4621   1.825   1.058  18.490
  307MPD2     H 4622   2.149   1.169  18.640
  307MPD2    H1 4623   1.732   1.107  18.669
  307MPD2    H2 4624   1.916   1.004  18.315
  307MPD2    H3 4625   1.731   1.035  18.440
  307MPD2     N 4626   1.961   1.188  18.807
  307MPD2    H5 4627   2.052   1.176  18.849
  307MPD2    N1 4628   2.168   1.084  18.389
  307MPD2    H7 4629   2.243   1.132  18.437
  308TMC3    C1 4630   1.771   1.163  19.208
  308TMC3    C2 4631   1.746   1.283  19.249
  308TMC3    C3 4632   1.783   1.390  19.170
  308TMC3    C4 4633   1.845   1.149  19.100
  308TMC3    C5 4634   1.884   1.250  19.020
  308TMC3    C6 4635   1.844   1.376  19.048
  308TMC3     C 4636   1.651   1.084  19.186
  308TMC3     O 4637   1.661   0.969  19.155
  308TMC3     H 4638   1.696   1.295  19.344
  308TMC3    H1 4639   1.858   1.048  19.061
  308TMC3    H2 4640   1.862   1.469  18.995
  308TMC3    C7 4641   1.853   1.223  18.889
  308TMC3    C8 4642   1.698   1.510  19.198
  308TMC3    O1 4643   1.735   1.244  18.864
  308TMC3    O2 4644   1.608   1.496  19.281
  309MPD2     C 4645   1.317   1.320  17.614
  309MPD2    C1 4646   1.280   1.414  17.516
  309MPD2    C2 4647   1.178   1.507  17.542
  309MPD2    C3 4648   1.101   1.489  17.656
  309MPD2    C4 4649   1.136   1.388  17.743
  309MPD2    C5 4650   1.240   1.308  17.727
  309MPD2     H 4651   1.152   1.579  17.466
  309MPD2    H1 4652   1.072   1.376  17.830
  309MPD2    H2 4653   1.402   1.253  17.606
  309MPD2    H3 4654   1.280   1.229  17.788
  309MPD2     N 4655   0.975   1.557  17.669
  309MPD2    H5 4656   0.915   1.528  17.745
  309MPD2    N1 4657   1.339   1.427  17.384
  309MPD2    H7 4658   1.287   1.482  17.317
  310TMC3    C1 4659   1.485   1.385  17.203
  310TMC3    C2 4660   1.430   1.490  17.135
  310TMC3    C3 4661   1.481   1.529  17.011
  310TMC3    C4 4662   1.598   1.319  17.155
  310TMC3    C5 4663   1.660   1.378  17.047
  310TMC3    C6 4664   1.600   1.478  16.968
  310TMC3     C 4665   1.444   1.352  17.335
  310TMC3     O 4666   1.514   1.268  17.393
  310TMC3     H 4667   1.333   1.530  17.162
  310TMC3    H1 4668   1.656   1.250  17.216
  310TMC3    H2 4669   1.638   1.505  16.870
  310TMC3    C7 4670   1.747   1.293  16.978
  310TMC3    C8 4671   1.402   1.618  16.936
  310TMC3    O1 4672   1.753   1.171  16.995
  310TMC3    O2 4673   1.287   1.649  16.974
  311MPD2     C 4674   3.337   2.820  12.992
  311MPD2    C1 4675   3.326   2.928  13.075
  311MPD2    C2 4676   3.229   2.920  13.174
  311MPD2    C3 4677   3.151   2.810  13.191
  311MPD2    C4 4678   3.169   2.703  13.110
  311MPD2    C5 4679   3.254   2.708  13.005
  311MPD2     H 4680   3.216   3.004  13.241
  311MPD2    H1 4681   3.119   2.609  13.129
  311MPD2    H2 4682   3.412   2.823  12.913
  311MPD2    H3 4683   3.257   2.625  12.936
  311MPD2     N 4684   3.049   2.813  13.294
  311MPD2    H5 4685   3.041   2.901  13.344
  311MPD2    N1 4686   3.408   3.048  13.064
  311MPD2    H7 4687   3.400   3.112  13.143
  312TMC3    C1 4688   2.853   2.751  13.397
  312TMC3    C2 4689   2.729   2.717  13.336
  312TMC3    C3 4690   2.633   2.814  13.349
  312TMC3    C4 4691   2.866   2.860  13.476
  312TMC3    C5 4692   2.758   2.938  13.499
  312TMC3    C6 4693   2.645   2.927  13.421
  312TMC3     C 4694   2.963   2.707  13.320
  312TMC3     O 4695   2.954   2.593  13.279
  312TMC3     H 4696   2.730   2.626  13.277
  312TMC3    H1 4697   2.957   2.883  13.530
  312TMC3    H2 4698   2.567   3.000  13.439
  312TMC3    C7 4699   2.782   3.049  13.589
  312TMC3    C8 4700   2.503   2.775  13.297
  312TMC3    O1 4701   2.732   3.156  13.565
  312TMC3    O2 4702   2.486   2.655  13.291
  313MPD2     C 4703   2.465   2.155  11.606
  313MPD2    C1 4704   2.503   2.253  11.512
  313MPD2    C2 4705   2.599   2.231  11.414
  313MPD2    C3 4706   2.652   2.105  11.403
  313MPD2    C4 4707   2.622   2.010  11.496
  313MPD2    C5 4708   2.527   2.034  11.588
  313MPD2     H 4709   2.616   2.308  11.339
  313MPD2    H1 4710   2.665   1.911  11.483
  313MPD2    H2 4711   2.392   2.158  11.686
  313MPD2    H3 4712   2.494   1.954  11.653
  313MPD2     N 4713   2.711   2.082  11.276
  313MPD2    H5 4714   2.685   2.143  11.200
  313MPD2    N1 4715   2.448   2.385  11.505
  313MPD2    H7 4716   2.482   2.442  11.428
  314TMC3    C1 4717   2.309   2.572  11.554
  314TMC3    C2 4718   2.409   2.653  11.543
  314TMC3    C3 4719   2.381   2.781  11.505
  314TMC3    C4 4720   2.181   2.599  11.519
  314TMC3    C5 4721   2.158   2.726  11.466
  314TMC3    C6 4722   2.257   2.810  11.459
  314TMC3     C 4723   2.340   2.433  11.580
  314TMC3     O 4724   2.254   2.378  11.649
  314TMC3     H 4725   2.506   2.611  11.565
  314TMC3    H1 4726   2.096   2.532  11.526
  314TMC3    H2 4727   2.235   2.913  11.436
  314TMC3    C7 4728   2.066   2.718  11.353
  314TMC3    C8 4729   2.474   2.890  11.517
  314TMC3    O1 4730   1.975   2.636  11.359
  314TMC3    O2 4731   2.431   3.006  11.530
  315MPD2     C 4732   2.597   1.327  17.736
  315MPD2    C1 4733   2.704   1.365  17.819
  315MPD2    C2 4734   2.762   1.482  17.798
  315MPD2    C3 4735   2.729   1.562  17.689
  315MPD2    C4 4736   2.630   1.526  17.602
  315MPD2    C5 4737   2.558   1.409  17.627
  315MPD2     H 4738   2.846   1.513  17.859
  315MPD2    H1 4739   2.608   1.578  17.510
  315MPD2    H2 4740   2.540   1.237  17.758
  315MPD2    H3 4741   2.469   1.388  17.569
  315MPD2     N 4742   2.796   1.686  17.672
  315MPD2    H5 4743   2.880   1.706  17.726
  315MPD2    N1 4744   2.739   1.284  17.931
  315MPD2    H7 4745   2.814   1.320  17.990
  316TMC3    C1 4746   2.868   1.894  17.587
  316TMC3    C2 4747   2.996   1.872  17.627
  316TMC3    C3 4748   3.091   1.959  17.584
  316TMC3    C4 4749   2.835   1.990  17.496
  316TMC3    C5 4750   2.931   2.082  17.461
  316TMC3    C6 4751   3.059   2.063  17.506
  316TMC3     C 4752   2.768   1.786  17.587
  316TMC3     O 4753   2.671   1.800  17.511
  316TMC3     H 4754   3.021   1.780  17.678
  316TMC3    H1 4755   2.733   2.001  17.460
  316TMC3    H2 4756   3.139   2.133  17.490
  316TMC3    C7 4757   2.886   2.217  17.458
  316TMC3    C8 4758   3.208   1.975  17.668
  316TMC3    O1 4759   2.948   2.300  17.526
  316TMC3    O2 4760   3.276   2.073  17.649
  317MPD2     C 4761   4.404   4.803  12.722
  317MPD2    C1 4762   4.453   4.671  12.711
  317MPD2    C2 4763   4.523   4.621  12.817
  317MPD2    C3 4764   4.568   4.699  12.925
  317MPD2    C4 4765   4.519   0.021  12.931
  317MPD2    C5 4766   4.435   0.071  12.832
  317MPD2     H 4767   4.564   4.521  12.812
  317MPD2    H1 4768   4.533   0.087  13.017
  317MPD2    H2 4769   4.355   0.046  12.638
  317MPD2    H3 4770   4.403   0.174  12.847
  317MPD2     N 4771   4.648   4.637  13.022
  317MPD2    H5 4772   4.656   4.536  13.010
  317MPD2    N1 4773   4.434   4.604  12.588
  317MPD2    H7 4774   4.495   4.524  12.572
  318TMC3    C1 4775   4.747   4.603  13.229
  318TMC3    C2 4776   4.665   4.501  13.247
  318TMC3    C3 4777   4.703   4.396  13.333
  318TMC3    C4 4778   0.060   4.616  13.300
  318TMC3    C5 4779   0.098   4.512  13.383
  318TMC3    C6 4780   0.018   4.400  13.400
  318TMC3     C 4781   4.710   4.697  13.129
  318TMC3     O 4782   4.759   0.003  13.145
  318TMC3     H 4783   4.563   4.512  13.211
  318TMC3    H1 4784   0.120   4.706  13.293
  318TMC3    H2 4785   0.032   4.326  13.478
  318TMC3    C7 4786   0.221   4.536  13.462
  318TMC3    C8 4787   4.620   4.276  13.348
  318TMC3    O1 4788   0.239   4.654  13.482
  318TMC3    O2 4789   4.671   4.164  13.357
  319MPD2     C 4790   0.790   0.967  16.587
  319MPD2    C1 4791   0.676   0.954  16.664
  319MPD2    C2 4792   0.568   0.887  16.606
  319MPD2    C3 4793   0.568   0.837  16.480
  319MPD2    C4 4794   0.683   0.852  16.405
  319MPD2    C5 4795   0.791   0.914  16.461
  319MPD2     H 4796   0.475   0.887  16.662
  319MPD2    H1 4797   0.692   0.819  16.302
  319MPD2    H2 4798   0.882   1.009  16.623
  319MPD2    H3 4799   0.877   0.932  16.398
  319MPD2     N 4800   0.458   0.776  16.417
  319MPD2    H5 4801   0.456   0.782  16.315
  319MPD2    N1 4802   0.661   1.011  16.791
  319MPD2    H7 4803   0.572   0.997  16.838
  320TMC3    C1 4804   0.238   0.705  16.412
  320TMC3    C2 4805   0.208   0.804  16.316
  320TMC3    C3 4806   0.085   0.796  16.249
  320TMC3    C4 4807   0.151   0.601  16.443
  320TMC3    C5 4808   0.031   0.602  16.381
  320TMC3    C6 4809   4.804   0.692  16.281
  320TMC3     C 4810   0.359   0.719  16.489
  320TMC3     O 4811   0.348   0.707  16.609
  320TMC3     H 4812   0.268   0.894  16.306
  320TMC3    H1 4813   0.189   0.531  16.516
  320TMC3    H2 4814   4.704   0.688  16.239
  320TMC3    C7 4815   4.745   0.487  16.406
  320TMC3    C8 4816   0.050   0.910  16.165
  320TMC3    O1 4817   4.660   0.462  16.324
  320TMC3    O2 4818   0.117   1.012  16.178
  321TMC3    C1 4819   0.732   1.103  16.996
  321TMC3    C2 4820   0.653   1.017  17.059
  321TMC3    C3 4821   0.552   1.061  17.142
  321TMC3    C4 4822   0.746   1.236  17.038
  321TMC3    C5 4823   0.650   1.276  17.132
  321TMC3    C6 4824   0.552   1.191  17.174
  321TMC3     C 4825   0.764   1.077  16.859
  321TMC3     O 4826   0.853   1.144  16.809
  321TMC3     H 4827   0.667   0.913  17.031
  321TMC3    H1 4828   0.815   1.306  16.993
  321TMC3    H2 4829   0.479   1.233  17.242
  321TMC3    C7 4830   0.717   1.326  17.251
  321TMC3    C8 4831   0.527   0.987  17.260
  321TMC3    O1 4832   0.828   1.281  17.271
  321TMC3    O2 4833   0.524   1.062  17.355
  322MPD2     C 4834   4.206   2.497  13.761
  322MPD2    C1 4835   4.244   2.426  13.874
  322MPD2    C2 4836   4.282   2.297  13.864
  322MPD2    C3 4837   4.284   2.233  13.739
  322MPD2    C4 4838   4.249   2.306  13.625
  322MPD2    C5 4839   4.204   2.434  13.641
  322MPD2     H 4840   4.309   2.236  13.950
  322MPD2    H1 4841   4.256   2.250  13.532
  322MPD2    H2 4842   4.175   2.601  13.759
  322MPD2    H3 4843   4.167   2.482  13.552
  322MPD2     N 4844   4.341   2.109  13.742
  322MPD2    H5 4845   4.357   2.061  13.830
  322MPD2    N1 4846   4.256   2.502  13.992
  322MPD2    H7 4847   4.243   2.603  13.985
  323TMC3    C1 4848   4.329   2.538  14.216
  323TMC3    C2 4849   4.433   2.621  14.176
  323TMC3    C3 4850   4.532   2.644  14.274
  323TMC3    C4 4851   4.322   2.497  14.347
  323TMC3    C5 4852   4.414   2.540  14.441
  323TMC3    C6 4853   4.523   2.610  14.409
  323TMC3     C 4854   4.283   2.447  14.116
  323TMC3     O 4855   4.288   2.335  14.162
  323TMC3     H 4856   4.433   2.668  14.079
  323TMC3    H1 4857   4.233   2.441  14.375
  323TMC3    H2 4858   4.613   2.607  14.469
  323TMC3    C7 4859   4.452   2.434  14.538
  323TMC3    C8 4860   4.667   2.684  14.220
  323TMC3    O1 4861   4.413   2.323  14.507
  323TMC3    O2 4862   4.760   2.670  14.300
  324MPD2     C 4863   0.901   3.577  14.460
  324MPD2    C1 4864   0.953   3.663  14.361
  324MPD2    C2 4865   0.864   3.693  14.263
  324MPD2    C3 4866   0.728   3.646  14.271
  324MPD2    C4 4867   0.680   3.563  14.375
  324MPD2    C5 4868   0.777   3.525  14.468
  324MPD2     H 4869   0.894   3.750  14.176
  324MPD2    H1 4870   0.578   3.527  14.380
  324MPD2    H2 4871   0.963   3.533  14.538
  324MPD2    H3 4872   0.736   3.461  14.546
  324MPD2     N 4873   0.626   3.684  14.173
  324MPD2    H5 4874   0.532   3.650  14.193
  324MPD2    N1 4875   1.090   3.694  14.353
  324MPD2    H7 4876   1.122   3.765  14.288
  325TMC3    C1 4877   0.524   3.748  13.957
  325TMC3    C2 4878   0.419   3.677  13.991
  325TMC3    C3 4879   0.299   3.691  13.925
  325TMC3    C4 4880   0.510   3.856  13.872
  325TMC3    C5 4881   0.396   3.866  13.796
  325TMC3    C6 4882   0.285   3.791  13.831
  325TMC3     C 4883   0.636   3.757  14.055
  325TMC3     O 4884   0.742   3.806  14.013
  325TMC3     H 4885   0.432   3.590  14.054
  325TMC3    H1 4886   0.591   3.927  13.866
  325TMC3    H2 4887   0.193   3.810  13.776
  325TMC3    C7 4888   0.377   4.007  13.772
  325TMC3    C8 4889   0.200   3.584  13.937
  325TMC3    O1 4890   0.472   4.070  13.735
  325TMC3    O2 4891   0.209   3.501  14.027
  326MPD2     C 4892   2.405   0.640  11.319
  326MPD2    C1 4893   2.412   0.550  11.212
  326MPD2    C2 4894   2.534   0.495  11.174
  326MPD2    C3 4895   2.645   0.528  11.236
  326MPD2    C4 4896   2.641   0.614  11.342
  326MPD2    C5 4897   2.520   0.668  11.384
  326MPD2     H 4898   2.526   0.432  11.086
  326MPD2    H1 4899   2.729   0.650  11.394
  326MPD2    H2 4900   2.312   0.691  11.340
  326MPD2    H3 4901   2.529   0.731  11.472
  326MPD2     N 4902   2.778   0.480  11.203
  326MPD2    H5 4903   2.863   0.515  11.246
  326MPD2    N1 4904   2.307   0.522  11.121
  326MPD2    H7 4905   2.329   0.454  11.049
  327TMC3    C1 4906   2.098   0.507  11.013
  327TMC3    C2 4907   2.011   0.587  10.943
  327TMC3    C3 4908   2.006   0.579  10.811
  327TMC3    C4 4909   2.139   0.389  10.951
  327TMC3    C5 4910   2.127   0.384  10.816
  327TMC3    C6 4911   2.058   0.474  10.741
  327TMC3     C 4912   2.183   0.575  11.117
  327TMC3     O 4913   2.150   0.675  11.177
  327TMC3     H 4914   1.964   0.669  10.996
  327TMC3    H1 4915   2.186   0.308  11.006
  327TMC3    H2 4916   2.048   0.484  10.634
  327TMC3    C7 4917   2.231   0.310  10.744
  327TMC3    C8 4918   1.897   0.664  10.755
  327TMC3    O1 4919   2.241   0.322  10.622
  327TMC3    O2 4920   1.898   0.702  10.638
  328MPD2     C 4921   0.081   4.582  17.496
  328MPD2    C1 4922   0.031   4.507  17.396
  328MPD2    C2 4923   4.802   4.567  17.273
  328MPD2    C3 4924   0.002   4.702  17.261
  328MPD2    C4 4925   0.058   4.775  17.363
  328MPD2    C5 4926   0.096   4.712  17.478
  328MPD2     H 4927   4.766   4.505  17.192
  328MPD2    H1 4928   0.061   0.079  17.364
  328MPD2    H2 4929   0.101   4.549  17.597
  328MPD2    H3 4930   0.135   4.781  17.552
  328MPD2     N 4931   4.742   4.774  17.161
  328MPD2    H5 4932   4.750   0.070  17.174
  328MPD2    N1 4933   4.802   4.378  17.421
  328MPD2    H7 4934   0.012   4.349  17.517
  329TMC3    C1 4935   4.683   4.185  17.434
  329TMC3    C2 4936   4.590   4.241  17.522
  329TMC3    C3 4937   4.477   4.180  17.557
  329TMC3    C4 4938   4.662   4.059  17.384
  329TMC3    C5 4939   4.544   3.995  17.424
  329TMC3    C6 4940   4.460   4.050  17.515
  329TMC3     C 4941   4.752   4.278  17.345
  329TMC3     O 4942   4.720   4.265  17.227
  329TMC3     H 4943   4.604   4.341  17.562
  329TMC3    H1 4944   4.737   4.022  17.315
  329TMC3    H2 4945   4.368   3.996  17.531
  329TMC3    C7 4946   4.556   3.851  17.449
  329TMC3    C8 4947   4.354   4.249  17.591
  329TMC3    O1 4948   4.502   3.809  17.551
  329TMC3    O2 4949   4.254   4.207  17.537
  330TMC3    C1 4950   2.389   4.497   9.680
  330TMC3    C2 4951   2.321   4.383   9.638
  330TMC3    C3 4952   2.354   4.261   9.700
  330TMC3    C4 4953   2.491   4.487   9.767
  330TMC3    C5 4954   2.520   4.373   9.827
  330TMC3    C6 4955   2.456   4.257   9.789
  330TMC3     C 4956   2.336   4.629   9.659
  330TMC3     O 4957   2.365   4.705   9.749
  330TMC3     H 4958   2.236   4.391   9.572
  330TMC3    H1 4959   2.554   4.576   9.766
  330TMC3    H2 4960   2.496   4.160   9.816
  330TMC3    C7 4961   2.641   4.365   9.905
  330TMC3    C8 4962   2.302   4.136   9.642
  330TMC3    O1 4963   2.724   4.454   9.905
  330TMC3    O2 4964   2.250   4.136   9.533
  331MPD2     C 4965   1.087   2.983  13.598
  331MPD2    C1 4966   1.151   2.983  13.475
  331MPD2    C2 4967   1.103   2.899  13.375
  331MPD2    C3 4968   1.004   2.814  13.402
  331MPD2    C4 4969   0.956   2.793  13.535
  331MPD2    C5 4970   0.993   2.887  13.631
  331MPD2     H 4971   1.148   2.892  13.277
  331MPD2    H1 4972   0.871   2.731  13.562
  331MPD2    H2 4973   1.119   3.057  13.671
  331MPD2    H3 4974   0.956   2.875  13.733
  331MPD2     N 4975   0.951   2.734  13.293
  331MPD2    H5 4976   1.000   2.750  13.205
  331MPD2    N1 4977   1.253   3.081  13.447
  331MPD2    H7 4978   1.255   3.165  13.503
  332TMC3    C1 4979   0.849   2.553  13.182
  332TMC3    C2 4980   0.882   2.625  13.073
  332TMC3    C3 4981   0.935   2.548  12.974
  332TMC3    C4 4982   0.853   2.417  13.190
  332TMC3    C5 4983   0.909   2.345  13.092
  332TMC3    C6 4984   0.950   2.408  12.980
  332TMC3     C 4985   0.869   2.618  13.304
  332TMC3     O 4986   0.837   2.563  13.409
  332TMC3     H 4987   0.880   2.733  13.058
  332TMC3    H1 4988   0.828   2.366  13.283
  332TMC3    H2 4989   1.000   2.347  12.906
  332TMC3    C7 4990   0.977   2.228  13.131
  332TMC3    C8 4991   0.987   2.612  12.865
  332TMC3    O1 4992   0.920   2.122  13.104
  332TMC3    O2 4993   1.060   2.708  12.875
  333MPD2     C 4994   0.786   3.408  11.442
  333MPD2    C1 4995   0.819   3.351  11.313
  333MPD2    C2 4996   0.823   3.217  11.306
  333MPD2    C3 4997   0.779   3.135  11.403
  333MPD2    C4 4998   0.739   3.190  11.526
  333MPD2    C5 4999   0.746   3.326  11.552
  333MPD2     H 5000   0.856   3.161  11.219
  333MPD2    H1 5001   0.709   3.128  11.610
  333MPD2    H2 5002   0.793   3.514  11.459
  333MPD2    H3 5003   0.712   3.365  11.647
  333MPD2     N 5004   0.781   3.002  11.368
  333MPD2    H5 5005   0.821   2.976  11.278
  333MPD2    N1 5006   0.861   3.438  11.213
  333MPD2    H7 5007   0.905   3.526  11.238
  334TMC3    C1 5008   0.942   3.509  11.003
  334TMC3    C2 5009   1.021   3.465  10.904
  334TMC3    C3 5010   1.131   3.543  10.857
  334TMC3    C4 5011   0.939   3.643  11.044
  334TMC3    C5 5012   1.038   3.718  10.990
  334TMC3    C6 5013   1.134   3.671  10.902
  334TMC3     C 5014   0.874   3.403  11.078
  334TMC3     O 5015   0.832   3.304  11.021
  334TMC3     H 5016   1.023   3.360  10.877
  334TMC3    H1 5017   0.869   3.684  11.115
  334TMC3    H2 5018   1.216   3.737  10.874
  334TMC3    C7 5019   1.058   3.852  11.054
  334TMC3    C8 5020   1.257   3.472  10.829
  334TMC3    O1 5021   1.174   3.882  11.090
  334TMC3    O2 5022   1.246   3.352  10.790
  335TMC3    C1 5023   0.765   4.547  17.448
  335TMC3    C2 5024   0.709   4.453  17.369
  335TMC3    C3 5025   0.762   4.432  17.248
  335TMC3    C4 5026   0.874   4.628  17.412
  335TMC3    C5 5027   0.927   4.599  17.288
  335TMC3    C6 5028   0.871   4.508  17.206
  335TMC3     C 5029   0.703   4.576  17.579
  335TMC3     O 5030   0.586   4.546  17.598
  335TMC3     H 5031   0.630   4.389  17.407
  335TMC3    H1 5032   0.926   4.695  17.480
  335TMC3    H2 5033   0.907   4.477  17.109
  335TMC3    C7 5034   1.057   4.639  17.245
  335TMC3    C8 5035   0.686   4.365  17.146
  335TMC3    O1 5036   1.100   4.585  17.144
  335TMC3    O2 5037   0.705   4.400  17.029
  336MPD2     C 5038   0.502   2.105  16.471
  336MPD2    C1 5039   0.488   2.046  16.342
  336MPD2    C2 5040   0.503   1.912  16.325
  336MPD2    C3 5041   0.542   1.826  16.426
  336MPD2    C4 5042   0.569   1.885  16.555
  336MPD2    C5 5043   0.545   2.020  16.577
  336MPD2     H 5044   0.469   1.886  16.225
  336MPD2    H1 5045   0.592   1.821  16.639
  336MPD2    H2 5046   0.482   2.209  16.493
  336MPD2    H3 5047   0.555   2.061  16.677
  336MPD2     N 5048   0.555   1.685  16.410
  336MPD2    H5 5049   0.574   1.639  16.499
  336MPD2    N1 5050   0.439   2.119  16.229
  336MPD2    H7 5051   0.412   2.064  16.148
  337TMC3    C1 5052   0.353   2.277  16.097
  337TMC3    C2 5053   0.249   2.200  16.048
  337TMC3    C3 5054   0.185   2.238  15.930
  337TMC3    C4 5055   0.395   2.384  16.024
  337TMC3    C5 5056   0.338   2.413  15.904
  337TMC3    C6 5057   0.227   2.349  15.862
  337TMC3     C 5058   0.417   2.252  16.224
  337TMC3     O 5059   0.469   2.339  16.291
  337TMC3     H 5060   0.200   2.126  16.111
  337TMC3    H1 5061   0.463   2.456  16.069
  337TMC3    H2 5062   0.177   2.391  15.775
  337TMC3    C7 5063   0.347   2.554  15.865
  337TMC3    C8 5064   0.075   2.164  15.875
  337TMC3    O1 5065   0.250   2.598  15.802
  337TMC3    O2 5066   0.051   2.052  15.927
  338MPD2     C 5067   1.163   1.962  19.079
  338MPD2    C1 5068   1.058   1.940  18.983
  338MPD2    C2 5069   0.942   2.019  19.000
  338MPD2    C3 5070   0.925   2.105  19.103
  338MPD2    C4 5071   1.025   2.121  19.196
  338MPD2    C5 5072   1.138   2.048  19.183
  338MPD2     H 5073   0.872   2.014  18.917
  338MPD2    H1 5074   1.016   2.203  19.266
  338MPD2    H2 5075   1.262   1.919  19.073
  338MPD2    H3 5076   1.212   2.067  19.259
  338MPD2     N 5077   0.799   2.174  19.095
  338MPD2    H5 5078   0.735   2.147  19.021
  338MPD2    N1 5079   1.071   1.861  18.866
  338MPD2    H7 5080   0.984   1.845  18.817
  339TMC3    C1 5081   0.608   2.268  19.162
  339TMC3    C2 5082   0.575   2.211  19.044
  339TMC3    C3 5083   0.494   2.099  19.052
  339TMC3    C4 5084   0.538   2.236  19.279
  339TMC3    C5 5085   0.445   2.128  19.278
  339TMC3    C6 5086   0.424   2.060  19.165
  339TMC3     C 5087   0.756   2.270  19.178
  339TMC3     O 5088   0.806   2.305  19.282
  339TMC3     H 5089   0.616   2.252  18.952
  339TMC3    H1 5090   0.567   2.281  19.373
  339TMC3    H2 5091   0.355   1.977  19.163
  339TMC3    C7 5092   0.396   2.098  19.412
  339TMC3    C8 5093   0.505   2.014  18.937
  339TMC3    O1 5094   0.469   2.118  19.503
  339TMC3    O2 5095   0.538   2.078  18.838
  340MPD2     C 5096   0.641   0.053  10.366
  340MPD2    C1 5097   0.692   4.730  10.404
  340MPD2    C2 5098   0.751   4.711  10.531
  340MPD2    C3 5099   0.786   0.020  10.601
  340MPD2    C4 5100   0.732   0.138  10.561
  340MPD2    C5 5101   0.654   0.147  10.451
  340MPD2     H 5102   0.798   4.620  10.567
  340MPD2    H1 5103   0.759   0.227  10.616
  340MPD2    H2 5104   0.569   0.061  10.286
  340MPD2    H3 5105   0.612   0.244  10.429
  340MPD2     N 5106   0.873   0.018  10.714
  340MPD2    H5 5107   0.914   0.106  10.744
  340MPD2    N1 5108   0.672   4.624  10.314
  340MPD2    H7 5109   0.630   4.645  10.223
  341TMC3    C1 5110   0.708   4.416  10.206
  341TMC3    C2 5111   0.702   4.280  10.219
  341TMC3    C3 5112   0.721   4.204  10.107
  341TMC3    C4 5113   0.723   4.483  10.084
  341TMC3    C5 5114   0.729   4.404   9.972
  341TMC3    C6 5115   0.730   4.266   9.984
  341TMC3     C 5116   0.704   4.491  10.335
  341TMC3     O 5117   0.743   4.440  10.437
  341TMC3     H 5118   0.698   4.235  10.318
  341TMC3    H1 5119   0.725   4.591  10.074
  341TMC3    H2 5120   0.719   4.206   9.894
  341TMC3    C7 5121   0.813   4.465   9.862
  341TMC3    C8 5122   0.696   4.058  10.122
  341TMC3    O1 5123   0.872   4.381   9.796
  341TMC3    O2 5124   0.616   4.030  10.211
  342MPD2     C 5125   3.426   2.605  17.336
  342MPD2    C1 5126   3.493   2.591  17.453
  342MPD2    C2 5127   3.531   2.699  17.523
  342MPD2    C3 5128   3.491   2.827  17.474
  342MPD2    C4 5129   3.410   2.843  17.364
  342MPD2    C5 5130   3.384   2.731  17.290
  342MPD2     H 5131   3.579   2.700  17.620
  342MPD2    H1 5132   3.384   2.939  17.321
  342MPD2    H2 5133   3.397   2.520  17.277
  342MPD2    H3 5134   3.320   2.735  17.203
  342MPD2     N 5135   3.528   2.948  17.537
  342MPD2    H5 5136   3.473   3.031  17.516
  342MPD2    N1 5137   3.524   2.458  17.504
  342MPD2    H7 5138   3.576   2.453  17.591
  343TMC3    C1 5139   3.587   2.231  17.481
  343TMC3    C2 5140   3.723   2.257  17.483
  343TMC3    C3 5141   3.807   2.145  17.455
  343TMC3    C4 5142   3.536   2.106  17.444
  343TMC3    C5 5143   3.623   2.001  17.444
  343TMC3    C6 5144   3.754   2.015  17.449
  343TMC3     C 5145   3.493   2.337  17.446
  343TMC3     O 5146   3.425   2.310  17.347
  343TMC3     H 5147   3.761   2.357  17.500
  343TMC3    H1 5148   3.429   2.088  17.449
  343TMC3    H2 5149   3.822   1.931  17.439
  343TMC3    C7 5150   3.560   1.880  17.494
  343TMC3    C8 5151   3.951   2.170  17.421
  343TMC3    O1 5152   3.464   1.835  17.442
  343TMC3    O2 5153   4.002   2.262  17.485
  344MPD2     C 5154   4.217   2.526  11.008
  344MPD2    C1 5155   4.316   2.442  10.955
  344MPD2    C2 5156   4.398   2.494  10.852
  344MPD2    C3 5157   4.398   2.623  10.821
  344MPD2    C4 5158   4.302   2.712  10.881
  344MPD2    C5 5159   4.208   2.656  10.965
  344MPD2     H 5160   4.460   2.418  10.806
  344MPD2    H1 5161   4.301   2.819  10.862
  344MPD2    H2 5162   4.136   2.493  11.072
  344MPD2    H3 5163   4.133   2.721  11.007
  344MPD2     N 5164   4.493   2.677  10.732
  344MPD2    H5 5165   4.486   2.775  10.706
  344MPD2    N1 5166   4.301   2.301  10.970
  344MPD2    H7 5167   4.349   2.245  10.900
  345TMC3    C1 5168   4.689   2.696  10.607
  345TMC3    C2 5169   0.020   2.686  10.623
  345TMC3    C3 5170   0.087   2.800  10.606
  345TMC3    C4 5171   4.636   2.787  10.523
  345TMC3    C5 5172   4.714   2.893  10.485
  345TMC3    C6 5173   0.038   2.905  10.527
  345TMC3     C 5174   4.610   2.616  10.693
  345TMC3     O 5175   4.662   2.528  10.752
  345TMC3     H 5176   0.051   2.606  10.688
  345TMC3    H1 5177   4.527   2.791  10.522
  345TMC3    H2 5178   0.086   3.001  10.510
  345TMC3    C7 5179   4.657   2.994  10.400
  345TMC3    C8 5180   0.159   2.844  10.717
  345TMC3    O1 5181   4.718   3.096  10.379
  345TMC3    O2 5182   0.132   2.813  10.833
  346MPD2     C 5183   4.268   3.669  13.971
  346MPD2    C1 5184   4.369   3.750  13.923
  346MPD2    C2 5185   4.407   3.865  13.991
  346MPD2    C3 5186   4.332   3.908  14.094
  346MPD2    C4 5187   4.215   3.840  14.127
  346MPD2    C5 5188   4.191   3.714  14.075
  346MPD2     H 5189   4.497   3.916  13.959
  346MPD2    H1 5190   4.164   3.874  14.216
  346MPD2    H2 5191   4.250   3.571  13.928
  346MPD2    H3 5192   4.102   3.660  14.106
  346MPD2     N 5193   4.374   4.022  14.159
  346MPD2    H5 5194   4.456   4.069  14.123
  346MPD2    N1 5195   4.443   3.720  13.810
  346MPD2    H7 5196   4.519   3.782  13.781
  347TMC3    C1 5197   4.364   4.220  14.274
  347TMC3    C2 5198   4.444   4.244  14.165
  347TMC3    C3 5199   4.563   4.299  14.188
  347TMC3    C4 5200   4.404   4.242  14.405
  347TMC3    C5 5201   4.534   4.291  14.418
  347TMC3    C6 5202   4.616   4.314  14.317
  347TMC3     C 5203   4.305   4.090  14.262
  347TMC3     O 5204   4.223   4.050  14.345
  347TMC3     H 5205   4.405   4.222  14.066
  347TMC3    H1 5206   4.340   4.218  14.489
  347TMC3    H2 5207   4.719   4.346  14.328
  347TMC3    C7 5208   4.597   4.272  14.549
  347TMC3    C8 5209   4.652   4.244  14.093
  347TMC3    O1 5210   4.519   4.250  14.644
  347TMC3    O2 5211   4.627   4.136  14.043
  348MPD2     C 5212   3.026   3.898  12.376
  348MPD2    C1 5213   3.142   3.889  12.303
  348MPD2    C2 5214   3.145   3.967  12.182
  348MPD2    C3 5215   3.035   4.044  12.141
  348MPD2    C4 5216   2.923   4.047  12.219
  348MPD2    C5 5217   2.928   3.981  12.336
  348MPD2     H 5218   3.228   3.962  12.111
  348MPD2    H1 5219   2.838   4.110  12.194
  348MPD2    H2 5220   2.990   3.844  12.463
  348MPD2    H3 5221   2.838   3.980  12.397
  348MPD2     N 5222   3.043   4.101  12.006
  348MPD2    H5 5223   3.120   4.070  11.948
  348MPD2    N1 5224   3.243   3.794  12.342
  348MPD2    H7 5225   3.322   3.773  12.283
  349TMC3    C1 5226   3.328   3.603  12.436
  349TMC3    C2 5227   3.279   3.479  12.475
  349TMC3    C3 5228   3.316   3.373  12.405
  349TMC3    C4 5229   3.416   3.615  12.332
  349TMC3    C5 5230   3.451   3.505  12.262
  349TMC3    C6 5231   3.403   3.385  12.300
  349TMC3     C 5232   3.220   3.700  12.438
  349TMC3     O 5233   3.127   3.673  12.515
  349TMC3     H 5234   3.207   3.464  12.554
  349TMC3    H1 5235   3.472   3.708  12.326
  349TMC3    H2 5236   3.436   3.295  12.249
  349TMC3    C7 5237   3.566   3.514  12.170
  349TMC3    C8 5238   3.310   3.242  12.471
  349TMC3    O1 5239   3.645   3.424  12.195
  349TMC3    O2 5240   3.315   3.234  12.595
  350MPD2     C 5241   2.110   1.900  10.792
  350MPD2    C1 5242   2.199   1.853  10.696
  350MPD2    C2 5243   2.327   1.900  10.696
  350MPD2    C3 5244   2.373   1.984  10.786
  350MPD2    C4 5245   2.277   2.026  10.885
  350MPD2    C5 5246   2.146   1.988  10.890
  350MPD2     H 5247   2.407   1.862  10.633
  350MPD2    H1 5248   2.298   2.099  10.962
  350MPD2    H2 5249   2.006   1.872  10.805
  350MPD2    H3 5250   2.084   2.021  10.972
  350MPD2     N 5251   2.509   2.033  10.771
  350MPD2    H5 5252   2.554   1.993  10.689
  350MPD2    N1 5253   2.172   1.756  10.596
  350MPD2    H7 5254   2.247   1.727  10.534
  351TMC3    C1 5255   2.055   1.574  10.501
  351TMC3    C2 5256   2.171   1.505  10.476
  351TMC3    C3 5257   2.168   1.404  10.384
  351TMC3    C4 5258   1.931   1.541  10.446
  351TMC3    C5 5259   1.934   1.433  10.363
  351TMC3    C6 5260   2.057   1.362  10.324
  351TMC3     C 5261   2.052   1.691  10.583
  351TMC3     O 5262   1.944   1.734  10.624
  351TMC3     H 5263   2.265   1.549  10.505
  351TMC3    H1 5264   1.843   1.601  10.466
  351TMC3    H2 5265   2.059   1.271  10.265
  351TMC3    C7 5266   1.829   1.442  10.259
  351TMC3    C8 5267   2.289   1.364  10.314
  351TMC3    O1 5268   1.742   1.525  10.274
  351TMC3    O2 5269   2.281   1.317  10.196
  352MPD2     C 5270   0.741   3.913  18.700
  352MPD2    C1 5271   0.711   3.896  18.831
  352MPD2    C2 5272   0.813   3.856  18.915
  352MPD2    C3 5273   0.934   3.815  18.870
  352MPD2    C4 5274   0.953   3.825  18.732
  352MPD2    C5 5275   0.864   3.883  18.651
  352MPD2     H 5276   0.789   3.849  19.020
  352MPD2    H1 5277   1.047   3.791  18.690
  352MPD2    H2 5278   0.666   3.944  18.628
  352MPD2    H3 5279   0.892   3.896  18.547
  352MPD2     N 5280   1.036   3.764  18.949
  352MPD2    H5 5281   1.112   3.722  18.898
  352MPD2    N1 5282   0.583   3.920  18.879
  352MPD2    H7 5283   0.514   3.966  18.821
  353TMC3    C1 5284   1.159   3.673  19.143
  353TMC3    C2 5285   1.252   3.617  19.061
  353TMC3    C3 5286   1.304   3.501  19.102
  353TMC3    C4 5287   1.129   3.622  19.268
  353TMC3    C5 5288   1.159   3.487  19.285
  353TMC3    C6 5289   1.251   3.431  19.204
  353TMC3     C 5290   1.041   3.752  19.087
  353TMC3     O 5291   0.954   3.780  19.170
  353TMC3     H 5292   1.290   3.666  18.972
  353TMC3    H1 5293   1.058   3.662  19.340
  353TMC3    H2 5294   1.271   3.324  19.205
  353TMC3    C7 5295   1.037   3.405  19.279
  353TMC3    C8 5296   1.370   3.421  19.004
  353TMC3    O1 5297   1.022   3.334  19.180
  353TMC3    O2 5298   1.327   3.424  18.889
  354TMC3    C1 5299   2.371   0.143  13.829
  354TMC3    C2 5300   2.473   0.232  13.855
  354TMC3    C3 5301   2.585   0.238  13.778
  354TMC3    C4 5302   2.380   0.062  13.719
  354TMC3    C5 5303   2.499   0.058  13.642
  354TMC3    C6 5304   2.601   0.146  13.676
  354TMC3     C 5305   2.308   0.072  13.943
  354TMC3     O 5306   2.209   0.003  13.928
  354TMC3     H 5307   2.466   0.304  13.936
  354TMC3    H1 5308   2.305   4.797  13.682
  354TMC3    H2 5309   2.689   0.165  13.616
  354TMC3    C7 5310   2.487   0.028  13.503
  354TMC3    C8 5311   2.646   0.366  13.749
  354TMC3    O1 5312   2.376   0.042  13.455
  354TMC3    O2 5313   2.567   0.454  13.726
  355MPD2     C 5314   2.631   1.064  12.158
  355MPD2    C1 5315   2.722   0.990  12.080
  355MPD2    C2 5316   2.814   0.912  12.144
  355MPD2    C3 5317   2.805   0.892  12.281
  355MPD2    C4 5318   2.704   0.956  12.350
  355MPD2    C5 5319   2.626   1.050  12.293
  355MPD2     H 5320   2.904   0.877  12.094
  355MPD2    H1 5321   2.701   0.935  12.456
  355MPD2    H2 5322   2.562   1.136  12.116
  355MPD2    H3 5323   2.559   1.113  12.351
  355MPD2     N 5324   2.913   0.841  12.352
  355MPD2    H5 5325   2.926   0.871  12.448
  355MPD2    N1 5326   2.737   1.028  11.943
  355MPD2    H7 5327   2.694   1.115  11.913
  356TMC3    C1 5328   3.138   0.833  12.328
  356TMC3    C2 5329   3.212   0.883  12.231
  356TMC3    C3 5330   3.272   1.001  12.258
  356TMC3    C4 5331   3.149   0.870  12.460
  356TMC3    C5 5332   3.207   0.990  12.484
  356TMC3    C6 5333   3.279   1.051  12.383
  356TMC3     C 5334   3.018   0.771  12.293
  356TMC3     O 5335   3.015   0.693  12.198
  356TMC3     H 5336   3.202   0.828  12.138
  356TMC3    H1 5337   3.098   0.811  12.535
  356TMC3    H2 5338   3.320   1.148  12.409
  356TMC3    C7 5339   3.248   1.020  12.624
  356TMC3    C8 5340   3.327   1.057  12.133
  356TMC3    O1 5341   3.260   0.922  12.702
  356TMC3    O2 5342   3.269   1.018  12.032
  357MPD2     C 5343   2.563   0.561  18.324
  357MPD2    C1 5344   2.525   0.534  18.451
  357MPD2    C2 5345   2.412   0.596  18.496
  357MPD2    C3 5346   2.335   0.678  18.405
  357MPD2    C4 5347   2.370   0.693  18.274
  357MPD2    C5 5348   2.482   0.629  18.234
  357MPD2     H 5349   2.375   0.583  18.597
  357MPD2    H1 5350   2.315   0.764  18.212
  357MPD2    H2 5351   2.654   0.512  18.293
  357MPD2    H3 5352   2.521   0.649  18.135
  357MPD2     N 5353   2.219   0.742  18.437
  357MPD2    H5 5354   2.163   0.784  18.363
  357MPD2    N1 5355   2.590   0.423  18.513
  357MPD2    H7 5356   2.654   0.367  18.458
  358TMC3    C1 5357   2.569   0.250  18.664
  358TMC3    C2 5358   2.544   0.166  18.561
  358TMC3    C3 5359   2.477   0.054  18.599
  358TMC3    C4 5360   2.539   0.226  18.794
  358TMC3    C5 5361   2.493   0.100  18.823
  358TMC3    C6 5362   2.448   0.019  18.729
  358TMC3     C 5363   2.568   0.396  18.643
  358TMC3     O 5364   2.523   0.468  18.733
  358TMC3     H 5365   2.573   0.179  18.458
  358TMC3    H1 5366   2.579   0.289  18.873
  358TMC3    H2 5367   2.408   4.728  18.762
  358TMC3    C7 5368   2.455   0.085  18.961
  358TMC3    C8 5369   2.446   4.766  18.485
  358TMC3    O1 5370   2.482   4.777  19.011
  358TMC3    O2 5371   2.514   4.778  18.386
  359MPD2     C 5372   2.745   4.715  12.633
  359MPD2    C1 5373   2.729   4.631  12.526
  359MPD2    C2 5374   2.633   4.527  12.526
  359MPD2    C3 5375   2.550   4.520  12.639
  359MPD2    C4 5376   2.563   4.612  12.740
  359MPD2    C5 5377   2.656   4.705  12.743
  359MPD2     H 5378   2.620   4.470  12.435
  359MPD2    H1 5379   2.483   4.618  12.813
  359MPD2    H2 5380   2.822   4.791  12.631
  359MPD2    H3 5381   2.655   4.790  12.810
  359MPD2     N 5382   2.458   4.415  12.660
  359MPD2    H5 5383   2.424   4.408  12.756
  359MPD2    N1 5384   2.801   4.643  12.405
  359MPD2    H7 5385   2.762   4.595  12.325
  360TMC3    C1 5386   2.948   4.726  12.254
  360TMC3    C2 5387   3.082   4.758  12.240
  360TMC3    C3 5388   3.125   4.754  12.110
  360TMC3    C4 5389   2.880   4.666  12.152
  360TMC3    C5 5390   2.939   4.638  12.035
  360TMC3    C6 5391   3.063   4.689  12.010
  360TMC3     C 5392   2.906   4.725  12.389
  360TMC3     O 5393   2.978   4.785  12.470
  360TMC3     H 5394   3.134   0.023  12.304
  360TMC3    H1 5395   2.772   4.659  12.163
  360TMC3    H2 5396   3.119   4.686  11.917
  360TMC3    C7 5397   2.869   4.604  11.911
  360TMC3    C8 5398   3.253   0.016  12.087
  360TMC3    O1 5399   2.921   4.640  11.810
  360TMC3    O2 5400   3.262   0.127  12.131
  361MPD2     C 5401   4.486   2.813  16.811
  361MPD2    C1 5402   4.511   2.910  16.899
  361MPD2    C2 5403   4.615   2.909  16.990
  361MPD2    C3 5404   4.710   2.804  16.984
  361MPD2    C4 5405   4.700   2.709  16.884
  361MPD2    C5 5406   4.586   2.715  16.808
  361MPD2     H 5407   4.616   2.983  17.070
  361MPD2    H1 5408   4.765   2.622  16.882
  361MPD2    H2 5409   4.404   2.815  16.740
  361MPD2    H3 5410   4.564   2.641  16.731
  361MPD2     N 5411   0.013   2.794  17.068
  361MPD2    H5 5412   0.072   2.713  17.054
  361MPD2    N1 5413   4.412   3.011  16.918
  361MPD2    H7 5414   4.417   3.065  17.004
  362TMC3    C1 5415   4.228   3.157  16.863
  362TMC3    C2 5416   4.184   3.155  16.992
  362TMC3    C3 5417   4.093   3.247  17.025
  362TMC3    C4 5418   4.183   3.238  16.765
  362TMC3    C5 5419   4.102   3.335  16.806
  362TMC3    C6 5420   4.055   3.337  16.934
  362TMC3     C 5421   4.320   3.051  16.824
  362TMC3     O 5422   4.322   3.037  16.702
  362TMC3     H 5423   4.215   3.080  17.064
  362TMC3    H1 5424   4.225   3.244  16.666
  362TMC3    H2 5425   3.987   3.417  16.962
  362TMC3    C7 5426   4.027   3.423  16.714
  362TMC3    C8 5427   4.003   3.222  17.133
  362TMC3    O1 5428   3.973   3.521  16.759
  362TMC3    O2 5429   4.043   3.143  17.218
  363TMC3    C1 5430   2.856   1.086   9.486
  363TMC3    C2 5431   2.979   1.065   9.541
  363TMC3    C3 5432   3.006   1.141   9.652
  363TMC3    C4 5433   2.760   1.172   9.536
  363TMC3    C5 5434   2.796   1.249   9.648
  363TMC3    C6 5435   2.916   1.222   9.709
  363TMC3     C 5436   2.813   1.032   9.356
  363TMC3     O 5437   2.707   1.073   9.314
  363TMC3     H 5438   3.061   1.013   9.492
  363TMC3    H1 5439   2.667   1.195   9.484
  363TMC3    H2 5440   2.939   1.270   9.803
  363TMC3    C7 5441   2.710   1.361   9.675
  363TMC3    C8 5442   3.113   1.099   9.740
  363TMC3    O1 5443   2.598   1.359   9.634
  363TMC3    O2 5444   3.162   1.183   9.814
  364MPD2     C 5445   1.517   1.000  10.827
  364MPD2    C1 5446   1.633   1.004  10.750
  364MPD2    C2 5447   1.718   0.900  10.749
  364MPD2    C3 5448   1.706   0.791  10.833
  364MPD2    C4 5449   1.605   0.792  10.923
  364MPD2    C5 5450   1.508   0.897  10.922
  364MPD2     H 5451   1.815   0.910  10.701
  364MPD2    H1 5452   1.585   0.707  10.988
  364MPD2    H2 5453   1.431   1.065  10.819
  364MPD2    H3 5454   1.418   0.896  10.981
  364MPD2     N 5455   1.796   0.693  10.847
  364MPD2    H5 5456   1.792   0.636  10.931
  364MPD2    N1 5457   1.641   1.108  10.654
  364MPD2    H7 5458   1.564   1.173  10.647
  365TMC3    C1 5459   1.868   1.104  10.581
  365TMC3    C2 5460   1.935   1.016  10.504
  365TMC3    C3 5461   2.070   1.007  10.515
  365TMC3    C4 5462   1.931   1.182  10.666
  365TMC3    C5 5463   2.067   1.190  10.657
  365TMC3    C6 5464   2.143   1.094  10.590
  365TMC3     C 5465   1.731   1.140  10.555
  365TMC3     O 5466   1.709   1.236  10.479
  365TMC3     H 5467   1.881   0.965  10.425
  365TMC3    H1 5468   1.873   1.256  10.720
  365TMC3    H2 5469   2.251   1.093  10.592
  365TMC3    C7 5470   2.132   1.285  10.739
  365TMC3    C8 5471   2.130   0.912  10.422
  365TMC3    O1 5472   2.237   1.336  10.702
  365TMC3    O2 5473   2.236   0.938  10.369
  366MPD2     C 5474   0.137   1.079  15.500
  366MPD2    C1 5475   0.231   1.176  15.526
  366MPD2    C2 5476   0.364   1.155  15.503
  366MPD2    C3 5477   0.406   1.045  15.425
  366MPD2    C4 5478   0.307   0.949  15.392
  366MPD2    C5 5479   0.180   0.970  15.429
  366MPD2     H 5480   0.429   1.236  15.533
  366MPD2    H1 5481   0.342   0.864  15.334
  366MPD2    H2 5482   0.032   1.093  15.521
  366MPD2    H3 5483   0.104   0.903  15.392
  366MPD2     N 5484   0.538   1.056  15.363
  366MPD2    H5 5485   0.592   1.125  15.415
  366MPD2    N1 5486   0.186   1.296  15.580
  366MPD2    H7 5487   0.258   1.356  15.618
  367TMC3    C1 5488   0.059   1.493  15.611
  367TMC3    C2 5489   0.158   1.537  15.700
  367TMC3    C3 5490   0.185   1.671  15.698
  367TMC3    C4 5491   4.800   1.579  15.535
  367TMC3    C5 5492   0.004   1.712  15.554
  367TMC3    C6 5493   0.109   1.760  15.625
  367TMC3     C 5494   0.058   1.355  15.560
  367TMC3     O 5495   4.768   1.323  15.501
  367TMC3     H 5496   0.206   1.466  15.767
  367TMC3    H1 5497   4.728   1.536  15.467
  367TMC3    H2 5498   0.130   1.864  15.648
  367TMC3    C7 5499   4.721   1.808  15.487
  367TMC3    C8 5500   0.298   1.713  15.787
  367TMC3    O1 5501   4.764   1.918  15.490
  367TMC3    O2 5502   0.336   1.636  15.871
  368MPD2     C 5503   1.838   3.176  13.749
  368MPD2    C1 5504   1.820   3.275  13.655
  368MPD2    C2 5505   1.932   3.303  13.576
  368MPD2    C3 5506   2.054   3.248  13.600
  368MPD2    C4 5507   2.075   3.163  13.712
  368MPD2    C5 5508   1.961   3.126  13.780
  368MPD2     H 5509   1.910   3.374  13.497
  368MPD2    H1 5510   2.169   3.113  13.734
  368MPD2    H2 5511   1.756   3.146  13.813
  368MPD2    H3 5512   1.970   3.046  13.854
  368MPD2     N 5513   2.157   3.275  13.513
  368MPD2    H5 5514   2.252   3.245  13.530
  368MPD2    N1 5515   1.699   3.344  13.648
  368MPD2    H7 5516   1.623   3.313  13.709
  369TMC3    C1 5517   1.559   3.519  13.585
  369TMC3    C2 5518   1.559   3.645  13.529
  369TMC3    C3 5519   1.435   3.707  13.506
  369TMC3    C4 5520   1.443   3.454  13.617
  369TMC3    C5 5521   1.320   3.516  13.582
  369TMC3    C6 5522   1.311   3.644  13.530
  369TMC3     C 5523   1.683   3.454  13.564
  369TMC3     O 5524   1.749   3.500  13.470
  369TMC3     H 5525   1.655   3.695  13.520
  369TMC3    H1 5526   1.444   3.351  13.652
  369TMC3    H2 5527   1.219   3.694  13.503
  369TMC3    C7 5528   1.193   3.438  13.586
  369TMC3    C8 5529   1.441   3.823  13.421
  369TMC3    O1 5530   1.208   3.322  13.622
  369TMC3    O2 5531   1.343   3.845  13.357
  370TMC3    C1 5532   0.824   3.938  16.387
  370TMC3    C2 5533   0.759   3.862  16.475
  370TMC3    C3 5534   0.746   3.729  16.443
  370TMC3    C4 5535   0.873   3.889  16.275
  370TMC3    C5 5536   0.857   3.759  16.242
  370TMC3    C6 5537   0.798   3.672  16.331
  370TMC3     C 5538   0.906   4.034  16.452
  370TMC3     O 5539   0.943   4.029  16.566
  370TMC3     H 5540   0.730   3.908  16.569
  370TMC3    H1 5541   0.940   3.952  16.217
  370TMC3    H2 5542   0.782   3.565  16.318
  370TMC3    C7 5543   0.936   3.709  16.122
  370TMC3    C8 5544   0.727   3.641  16.554
  370TMC3    O1 5545   0.964   3.787  16.033
  370TMC3    O2 5546   0.732   3.518  16.541
  371TMC3    C1 5547   2.120   2.175  15.727
  371TMC3    C2 5548   2.095   2.200  15.858
  371TMC3    C3 5549   2.106   2.331  15.892
  371TMC3    C4 5550   2.148   2.269  15.631
  371TMC3    C5 5551   2.160   2.395  15.678
  371TMC3    C6 5552   2.140   2.425  15.805
  371TMC3     C 5553   2.127   2.035  15.685
  371TMC3     O 5554   2.176   2.006  15.575
  371TMC3     H 5555   2.073   2.122  15.931
  371TMC3    H1 5556   2.162   2.242  15.527
  371TMC3    H2 5557   2.121   2.525  15.842
  371TMC3    C7 5558   2.219   2.495  15.592
  371TMC3    C8 5559   2.106   2.372  16.025
  371TMC3    O1 5560   2.186   2.489  15.477
  371TMC3    O2 5561   2.171   2.302  16.103
  372MPD2     C 5562   1.644   3.555  13.952
  372MPD2    C1 5563   1.765   3.481  13.959
  372MPD2    C2 5564   1.756   3.366  14.041
  372MPD2    C3 5565   1.638   3.323  14.099
  372MPD2    C4 5566   1.521   3.396  14.077
  372MPD2    C5 5567   1.527   3.517  14.014
  372MPD2     H 5568   1.846   3.304  14.041
  372MPD2    H1 5569   1.426   3.365  14.120
  372MPD2    H2 5570   1.636   3.647  13.896
  372MPD2    H3 5571   1.437   3.578  14.004
  372MPD2     N 5572   1.648   3.192  14.146
  372MPD2    H5 5573   1.728   3.136  14.120
  372MPD2    N1 5574   1.888   3.511  13.888
  372MPD2    H7 5575   1.967   3.450  13.909
  373TMC3    C1 5576   1.575   2.990  14.252
  373TMC3    C2 5577   1.488   2.949  14.345
  373TMC3    C3 5578   1.466   2.818  14.365
  373TMC3    C4 5579   1.632   2.905  14.162
  373TMC3    C5 5580   1.607   2.770  14.176
  373TMC3    C6 5581   1.529   2.728  14.280
  373TMC3     C 5582   1.549   3.133  14.221
  373TMC3     O 5583   1.464   3.199  14.281
  373TMC3     H 5584   1.447   3.031  14.403
  373TMC3    H1 5585   1.687   2.947  14.079
  373TMC3    H2 5586   1.516   2.622  14.300
  373TMC3    C7 5587   1.702   2.684  14.105
  373TMC3    C8 5588   1.422   2.773  14.491
  373TMC3    O1 5589   1.751   2.721  13.999
  373TMC3    O2 5590   1.336   2.686  14.495
  374TMC3    C1 5591   1.917   3.915   9.955
  374TMC3    C2 5592   1.969   4.034   9.996
  374TMC3    C3 5593   1.994   4.125   9.902
  374TMC3    C4 5594   1.888   3.890   9.822
  374TMC3    C5 5595   1.934   3.985   9.732
  374TMC3    C6 5596   1.983   4.110   9.768
  374TMC3     C 5597   1.870   3.818  10.052
  374TMC3     O 5598   1.800   3.730  10.000
  374TMC3     H 5599   1.985   4.060  10.100
  374TMC3    H1 5600   1.865   3.791   9.786
  374TMC3    H2 5601   2.006   4.193   9.702
  374TMC3    C7 5602   1.898   3.957   9.599
  374TMC3    C8 5603   2.072   4.249   9.933
  374TMC3    O1 5604   1.836   3.851   9.574
  374TMC3    O2 5605   2.043   4.350   9.870
  375MPD2     C 5606   2.303   4.486  16.868
  375MPD2    C1 5607   2.185   4.440  16.809
  375MPD2    C2 5608   2.198   4.356  16.701
  375MPD2    C3 5609   2.328   4.321  16.651
  375MPD2    C4 5610   2.440   4.356  16.722
  375MPD2    C5 5611   2.431   4.446  16.827
  375MPD2     H 5612   2.108   4.324  16.650
  375MPD2    H1 5613   2.536   4.317  16.691
  375MPD2    H2 5614   2.286   4.551  16.954
  375MPD2    H3 5615   2.521   4.480  16.878
  375MPD2     N 5616   2.340   4.226  16.550
  375MPD2    H5 5617   2.429   4.176  16.545
  375MPD2    N1 5618   2.055   4.471  16.855
  375MPD2    H7 5619   1.987   4.419  16.802
  376TMC3    C1 5620   2.259   4.086  16.383
  376TMC3    C2 5621   2.337   3.985  16.440
  376TMC3    C3 5622   2.387   3.882  16.361
  376TMC3    C4 5623   2.229   4.082  16.255
  376TMC3    C5 5624   2.283   3.984  16.179
  376TMC3    C6 5625   2.362   3.880  16.229
  376TMC3     C 5626   2.249   4.212  16.449
  376TMC3     O 5627   2.143   4.275  16.432
  376TMC3     H 5628   2.369   3.993  16.543
  376TMC3    H1 5629   2.174   4.167  16.218
  376TMC3    H2 5630   2.433   3.824  16.170
  376TMC3    C7 5631   2.287   4.018  16.039
  376TMC3    C8 5632   2.526   3.856  16.391
  376TMC3    O1 5633   2.258   4.133  16.014
  376TMC3    O2 5634   2.608   3.873  16.305
  377MPD2     C 5635   0.654   3.982  12.730
  377MPD2    C1 5636   0.671   3.865  12.798
  377MPD2    C2 5637   0.571   3.822  12.880
  377MPD2    C3 5638   0.457   3.899  12.902
  377MPD2    C4 5639   0.445   4.020  12.839
  377MPD2    C5 5640   0.544   4.064  12.750
  377MPD2     H 5641   0.575   3.720  12.917
  377MPD2    H1 5642   0.349   4.070  12.842
  377MPD2    H2 5643   0.737   4.014  12.668
  377MPD2    H3 5644   0.541   4.153  12.687
  377MPD2     N 5645   0.338   3.839  12.957
  377MPD2    H5 5646   0.250   3.886  12.938
  377MPD2    N1 5647   0.787   3.790  12.771
  377MPD2    H7 5648   0.868   3.834  12.729
  378TMC3    C1 5649   0.891   3.587  12.433
  378TMC3    C2 5650   0.826   3.576  12.553
  378TMC3    C3 5651   0.896   3.615  12.663
  378TMC3    C4 5652   1.003   3.659  12.423
  378TMC3    C5 5653   1.065   3.701  12.536
  378TMC3    C6 5654   1.017   3.679  12.667
  378TMC3     C 5655   0.789   3.649  12.348
  378TMC3     O 5656   0.692   3.702  12.400
  378TMC3     H 5657   0.737   3.514  12.556
  378TMC3    H1 5658   1.044   3.683  12.325
  378TMC3    H2 5659   1.064   3.706  12.761
  378TMC3    C7 5660   1.188   3.772  12.536
  378TMC3    C8 5661   0.790   3.659  12.757
  378TMC3    O1 5662   1.261   3.766  12.637
  378TMC3    O2 5663   0.697   3.581  12.778
  379MPD2     C 5664   1.374   1.878  16.489
  379MPD2    C1 5665   1.276   1.802  16.552
  379MPD2    C2 5666   1.311   1.742  16.677
  379MPD2    C3 5667   1.434   1.754  16.733
  379MPD2    C4 5668   1.522   1.836  16.668
  379MPD2    C5 5669   1.499   1.892  16.547
  379MPD2     H 5670   1.237   1.682  16.729
  379MPD2    H1 5671   1.609   1.869  16.724
  379MPD2    H2 5672   1.348   1.922  16.393
  379MPD2    H3 5673   1.575   1.952  16.498
  379MPD2     N 5674   1.480   1.686  16.849
  379MPD2    H5 5675   1.580   1.694  16.865
  379MPD2    N1 5676   1.152   1.786  16.481
  379MPD2    H7 5677   1.153   1.842  16.397
  380TMC3    C1 5678   0.977   1.666  16.390
  380TMC3    C2 5679   0.996   1.555  16.312
  380TMC3    C3 5680   0.958   1.558  16.180
  380TMC3    C4 5681   0.905   1.772  16.346
  380TMC3    C5 5682   0.853   1.762  16.222
  380TMC3    C6 5683   0.873   1.656  16.140
  380TMC3     C 5684   1.069   1.676  16.502
  380TMC3     O 5685   1.077   1.583  16.574
  380TMC3     H 5686   1.048   1.473  16.359
  380TMC3    H1 5687   0.897   1.868  16.397
  380TMC3    H2 5688   0.871   1.659  16.031
  380TMC3    C7 5689   0.808   1.884  16.160
  380TMC3    C8 5690   1.069   1.543  16.088
  380TMC3    O1 5691   0.824   1.998  16.196
  380TMC3    O2 5692   1.043   1.529  15.974
  381TMC3    C1 5693   0.818   3.019  16.310
  381TMC3    C2 5694   0.889   3.134  16.320
  381TMC3    C3 5695   0.885   3.208  16.438
  381TMC3    C4 5696   0.765   2.971  16.424
  381TMC3    C5 5697   0.762   3.047  16.540
  381TMC3    C6 5698   0.807   3.178  16.545
  381TMC3     C 5699   0.877   2.915  16.221
  381TMC3     O 5700   0.943   2.970  16.137
  381TMC3     H 5701   0.940   3.170  16.232
  381TMC3    H1 5702   0.709   2.878  16.428
  381TMC3    H2 5703   0.805   3.232  16.639
  381TMC3    C7 5704   0.697   2.994  16.659
  381TMC3    C8 5705   1.012   3.275  16.459
  381TMC3    O1 5706   0.712   2.872  16.682
  381TMC3    O2 5707   1.103   3.213  16.403
  382MPD2     C 5708   0.184   0.826  17.182
  382MPD2    C1 5709   0.125   0.852  17.301
  382MPD2    C2 5710   0.071   0.742  17.374
  382MPD2    C3 5711   0.094   0.612  17.324
  382MPD2    C4 5712   0.167   0.589  17.208
  382MPD2    C5 5713   0.212   0.698  17.134
  382MPD2     H 5714   0.035   0.765  17.474
  382MPD2    H1 5715   0.187   0.491  17.166
  382MPD2    H2 5716   0.222   0.901  17.113
  382MPD2    H3 5717   0.272   0.678  17.046
  382MPD2     N 5718   0.037   0.498  17.392
  382MPD2    H5 5719   0.038   0.411  17.340
  382MPD2    N1 5720   0.104   0.981  17.353
  382MPD2    H7 5721   0.065   0.994  17.445
  383TMC3    C1 5722   4.715   0.382  17.562
  383TMC3    C2 5723   4.651   0.308  17.466
  383TMC3    C3 5724   4.585   0.195  17.510
  383TMC3    C4 5725   4.720   0.346  17.692
  383TMC3    C5 5726   4.651   0.235  17.725
  383TMC3    C6 5727   4.587   0.151  17.639
  383TMC3     C 5728   4.789   0.505  17.520
  383TMC3     O 5729   0.011   0.590  17.603
  383TMC3     H 5730   4.638   0.345  17.365
  383TMC3    H1 5731   4.779   0.403  17.763
  383TMC3    H2 5732   4.510   0.088  17.681
  383TMC3    C7 5733   4.600   0.217  17.861
  383TMC3    C8 5734   4.493   0.130  17.419
  383TMC3    O1 5735   4.575   0.099  17.890
  383TMC3    O2 5736   4.441   0.191  17.329
  384MPD2     C 5737   1.657   2.111  12.255
  384MPD2    C1 5738   1.692   2.092  12.384
  384MPD2    C2 5739   1.808   2.018  12.410
  384MPD2    C3 5740   1.878   1.957  12.300
  384MPD2    C4 5741   1.832   1.976  12.173
  384MPD2    C5 5742   1.726   2.060  12.147
  384MPD2     H 5743   1.835   2.000  12.513
  384MPD2    H1 5744   1.876   1.933  12.084
  384MPD2    H2 5745   1.574   2.177  12.230
  384MPD2    H3 5746   1.686   2.085  12.050
  384MPD2     N 5747   1.979   1.860  12.319
  384MPD2    H5 5748   2.015   1.808  12.239
  384MPD2    N1 5749   1.610   2.153  12.481
  384MPD2    H7 5750   1.517   2.180  12.453
  385TMC3    C1 5751   2.064   1.719  12.478
  385TMC3    C2 5752   2.001   1.620  12.413
  385TMC3    C3 5753   1.969   1.509  12.486
  385TMC3    C4 5754   2.091   1.707  12.611
  385TMC3    C5 5755   2.058   1.590  12.685
  385TMC3    C6 5756   1.995   1.488  12.620
  385TMC3     C 5757   2.047   1.850  12.436
  385TMC3     O 5758   2.067   1.931  12.524
  385TMC3     H 5759   1.978   1.636  12.309
  385TMC3    H1 5760   2.146   1.788  12.657
  385TMC3    H2 5761   1.979   1.393  12.670
  385TMC3    C7 5762   2.009   1.627  12.822
  385TMC3    C8 5763   1.902   1.394  12.419
  385TMC3    O1 5764   2.014   1.746  12.841
  385TMC3    O2 5765   1.862   1.304  12.493
  386TMC3    C1 5766   2.161   4.063  12.034
  386TMC3    C2 5767   2.186   4.140  11.920
  386TMC3    C3 5768   2.097   4.243  11.894
  386TMC3    C4 5769   2.052   4.082  12.107
  386TMC3    C5 5770   1.962   4.178  12.061
  386TMC3    C6 5771   1.982   4.270  11.960
  386TMC3     C 5772   2.272   3.993  12.097
  386TMC3     O 5773   2.386   4.029  12.068
  386TMC3     H 5774   2.283   4.139  11.870
  386TMC3    H1 5775   2.029   4.022  12.194
  386TMC3    H2 5776   1.907   4.341  11.926
  386TMC3    C7 5777   1.847   4.206  12.156
  386TMC3    C8 5778   2.087   4.281  11.756
  386TMC3    O1 5779   1.856   4.168  12.271
  386TMC3    O2 5780   2.049   4.389  11.725
  387MPD2     C 5781   3.953   4.299   9.788
  387MPD2    C1 5782   4.084   4.272   9.766
  387MPD2    C2 5783   4.137   4.152   9.806
  387MPD2    C3 5784   4.064   4.067   9.882
  387MPD2    C4 5785   3.930   4.095   9.907
  387MPD2    C5 5786   3.877   4.211   9.863
  387MPD2     H 5787   4.244   4.146   9.793
  387MPD2    H1 5788   3.874   4.027   9.969
  387MPD2    H2 5789   3.901   4.386   9.749
  387MPD2    H3 5790   3.775   4.229   9.896
  387MPD2     N 5791   4.137   3.965   9.941
  387MPD2    H5 5792   4.236   3.969   9.922
  387MPD2    N1 5793   4.165   4.361   9.690
  387MPD2    H7 5794   4.256   4.321   9.670
  388TMC3    C1 5795   4.275   4.557   9.668
  388TMC3    C2 5796   4.294   4.654   9.572
  388TMC3    C3 5797   4.411   4.721   9.570
  388TMC3    C4 5798   4.376   4.514   9.753
  388TMC3    C5 5799   4.500   4.563   9.724
  388TMC3    C6 5800   4.524   4.665   9.629
  388TMC3     C 5801   4.151   4.500   9.678
  388TMC3     O 5802   4.046   4.561   9.652
  388TMC3     H 5803   4.207   4.687   9.517
  388TMC3    H1 5804   4.350   4.447   9.834
  388TMC3    H2 5805   4.627   4.696   9.615
  388TMC3    C7 5806   4.617   4.484   9.762
  388TMC3    C8 5807   4.431   4.798   9.448
  388TMC3    O1 5808   4.718   4.489   9.688
  388TMC3    O2 5809   4.350   4.781   9.360
  389MPD2     C 5810   3.667   2.675  11.366
  389MPD2    C1 5811   3.599   2.562  11.337
  389MPD2    C2 5812   3.601   2.458  11.432
  389MPD2    C3 5813   3.683   2.472  11.541
  389MPD2    C4 5814   3.757   2.588  11.568
  389MPD2    C5 5815   3.748   2.690  11.478
  389MPD2     H 5816   3.548   2.367  11.410
  389MPD2    H1 5817   3.831   2.604  11.645
  389MPD2    H2 5818   3.677   2.764  11.305
  389MPD2    H3 5819   3.808   2.773  11.514
  389MPD2     N 5820   3.710   2.360  11.628
  389MPD2    H5 5821   3.784   2.371  11.696
  389MPD2    N1 5822   3.552   2.556  11.206
  389MPD2    H7 5823   3.567   2.639  11.149
  390TMC3    C1 5824   3.666   2.156  11.741
  390TMC3    C2 5825   3.605   2.036  11.740
  390TMC3    C3 5826   3.546   1.988  11.854
  390TMC3    C4 5827   3.689   2.223  11.856
  390TMC3    C5 5828   3.623   2.178  11.968
  390TMC3    C6 5829   3.547   2.057  11.973
  390TMC3     C 5830   3.653   2.232  11.621
  390TMC3     O 5831   3.580   2.183  11.536
  390TMC3     H 5832   3.592   1.979  11.649
  390TMC3    H1 5833   3.734   2.321  11.867
  390TMC3    H2 5834   3.508   2.020  12.068
  390TMC3    C7 5835   3.624   2.266  12.082
  390TMC3    C8 5836   3.452   1.883  11.846
  390TMC3    O1 5837   3.730   2.303  12.123
  390TMC3    O2 5838   3.448   1.818  11.739
  391MPD2     C 5839   2.494   4.094  11.464
  391MPD2    C1 5840   2.624   4.086  11.416
  391MPD2    C2 5841   2.653   4.117  11.287
  391MPD2    C3 5842   2.553   4.156  11.204
  391MPD2    C4 5843   2.422   4.165  11.255
  391MPD2    C5 5844   2.391   4.144  11.388
  391MPD2     H 5845   2.752   4.104  11.245
  391MPD2    H1 5846   2.342   4.207  11.196
  391MPD2    H2 5847   2.471   4.081  11.569
  391MPD2    H3 5848   2.293   4.147  11.432
  391MPD2     N 5849   2.584   4.193  11.077
  391MPD2    H5 5850   2.682   4.203  11.053
  391MPD2    N1 5851   2.728   4.056  11.510
  391MPD2    H7 5852   2.707   4.013  11.600
  392TMC3    C1 5853   2.559   4.200  10.832
  392TMC3    C2 5854   2.476   4.224  10.728
  392TMC3    C3 5855   2.533   4.266  10.609
  392TMC3    C4 5856   2.697   4.202  10.820
  392TMC3    C5 5857   2.748   4.231  10.696
  392TMC3    C6 5858   2.666   4.268  10.591
  392TMC3     C 5859   2.494   4.197  10.964
  392TMC3     O 5860   2.375   4.200  10.968
  392TMC3     H 5861   2.368   4.212  10.733
  392TMC3    H1 5862   2.762   4.187  10.905
  392TMC3    H2 5863   2.701   4.280  10.489
  392TMC3    C7 5864   2.887   4.272  10.693
  392TMC3    C8 5865   2.454   4.258  10.488
  392TMC3    O1 5866   2.947   4.273  10.798
  392TMC3    O2 5867   2.343   4.203  10.498
  393TMC3    C1 5868   2.230   2.307  11.199
  393TMC3    C2 5869   2.138   2.351  11.291
  393TMC3    C3 5870   2.097   2.261  11.395
  393TMC3    C4 5871   2.298   2.191  11.221
  393TMC3    C5 5872   2.248   2.107  11.316
  393TMC3    C6 5873   2.155   2.140  11.406
  393TMC3     C 5874   2.202   2.341  11.063
  393TMC3     O 5875   2.081   2.366  11.035
  393TMC3     H 5876   2.084   2.441  11.265
  393TMC3    H1 5877   2.382   2.169  11.156
  393TMC3    H2 5878   2.133   2.074  11.488
  393TMC3    C7 5879   2.308   1.971  11.327
  393TMC3    C8 5880   1.959   2.252  11.421
  393TMC3    O1 5881   2.255   1.898  11.414
  393TMC3    O2 5882   1.918   2.143  11.456
  394TMC3    C1 5883   3.421   2.497  11.025
  394TMC3    C2 5884   3.301   2.445  10.988
  394TMC3    C3 5885   3.277   2.444  10.853
  394TMC3    C4 5886   3.518   2.537  10.939
  394TMC3    C5 5887   3.492   2.532  10.806
  394TMC3    C6 5888   3.374   2.479  10.760
  394TMC3     C 5889   3.467   2.458  11.162
  394TMC3     O 5890   3.402   2.380  11.225
  394TMC3     H 5891   3.221   2.402  11.048
  394TMC3    H1 5892   3.616   2.579  10.955
  394TMC3    H2 5893   3.344   2.480  10.656
  394TMC3    C7 5894   3.581   2.592  10.709
  394TMC3    C8 5895   3.170   2.357  10.810
  394TMC3    O1 5896   3.660   2.675  10.751
  394TMC3    O2 5897   3.088   2.334  10.897
  395TMC3    C1 5898   2.816   4.232  14.904
  395TMC3    C2 5899   2.718   4.232  14.989
  395TMC3    C3 5900   2.742   4.273  15.119
  395TMC3    C4 5901   2.945   4.263  14.934
  395TMC3    C5 5902   2.965   4.312  15.059
  395TMC3    C6 5903   2.864   4.322  15.155
  395TMC3     C 5904   2.779   4.226  14.766
  395TMC3     O 5905   2.771   4.335  14.715
  395TMC3     H 5906   2.614   4.221  14.959
  395TMC3    H1 5907   3.023   4.249  14.861
  395TMC3    H2 5908   2.889   4.363  15.252
  395TMC3    C7 5909   3.099   4.360  15.105
  395TMC3    C8 5910   2.675   4.179  15.211
  395TMC3    O1 5911   3.092   4.462  15.173
  395TMC3    O2 5912   2.706   4.200  15.326
  396MPD2     C 5913   2.957   0.134  16.999
  396MPD2    C1 5914   3.005   0.184  17.112
  396MPD2    C2 5915   3.065   0.307  17.112
  396MPD2    C3 5916   3.078   0.380  16.996
  396MPD2    C4 5917   3.023   0.327  16.888
  396MPD2    C5 5918   2.966   0.205  16.884
  396MPD2     H 5919   3.120   0.348  17.197
  396MPD2    H1 5920   3.030   0.371  16.789
  396MPD2    H2 5921   2.908   0.037  17.002
  396MPD2    H3 5922   2.928   0.163  16.791
  396MPD2     N 5923   3.142   0.504  16.996
  396MPD2    H5 5924   3.173   0.547  17.083
  396MPD2    N1 5925   2.983   0.107  17.230
  396MPD2    H7 5926   2.943   0.015  17.215
  397TMC3    C1 5927   3.043   0.031  17.450
  397TMC3    C2 5928   3.171   4.799  17.440
  397TMC3    C3 5929   3.208   4.674  17.408
  397TMC3    C4 5930   2.943   4.745  17.437
  397TMC3    C5 5931   2.976   4.617  17.408
  397TMC3    C6 5932   3.107   4.584  17.382
  397TMC3     C 5933   3.038   0.141  17.354
  397TMC3     O 5934   3.109   0.233  17.390
  397TMC3     H 5935   3.253   0.065  17.442
  397TMC3    H1 5936   2.842   4.780  17.456
  397TMC3    H2 5937   3.137   4.481  17.362
  397TMC3    C7 5938   2.880   4.506  17.430
  397TMC3    C8 5939   3.320   4.664  17.314
  397TMC3    O1 5940   2.906   4.393  17.393
  397TMC3    O2 5941   3.307   4.578  17.227
  398MPD2     C 5942   1.136   1.652  18.296
  398MPD2    C1 5943   1.197   1.547  18.365
  398MPD2    C2 5944   1.318   1.581  18.434
  398MPD2    C3 5945   1.363   1.718  18.437
  398MPD2    C4 5946   1.289   1.815  18.374
  398MPD2    C5 5947   1.181   1.782  18.300
  398MPD2     H 5948   1.381   1.504  18.474
  398MPD2    H1 5949   1.331   1.915  18.373
  398MPD2    H2 5950   1.040   1.642  18.248
  398MPD2    H3 5951   1.125   1.863  18.254
  398MPD2     N 5952   1.478   1.744  18.510
  398MPD2    H5 5953   1.517   1.666  18.561
  398MPD2    N1 5954   1.149   1.415  18.359
  398MPD2    H7 5955   1.198   1.357  18.426
  399TMC3    C1 5956   0.991   1.234  18.323
  399TMC3    C2 5957   1.065   1.150  18.403
  399TMC3    C3 5958   1.000   1.062  18.488
  399TMC3    C4 5959   0.852   1.220  18.316
  399TMC3    C5 5960   0.790   1.122  18.397
  399TMC3    C6 5961   0.862   1.043  18.484
  399TMC3     C 5962   1.033   1.371  18.299
  399TMC3     O 5963   0.963   1.434  18.224
  399TMC3     H 5964   1.172   1.171  18.401
  399TMC3    H1 5965   0.796   1.283  18.248
  399TMC3    H2 5966   0.812   0.965  18.540
  399TMC3    C7 5967   0.680   1.046  18.346
  399TMC3    C8 5968   1.074   0.952  18.540
  399TMC3    O1 5969   0.641   0.959  18.419
  399TMC3    O2 5970   1.012   0.850  18.562
  400TMC3    C1 5971   4.581   0.019  16.989
  400TMC3    C2 5972   4.515   4.785  16.877
  400TMC3    C3 5973   4.452   0.064  16.794
  400TMC3    C4 5974   4.593   0.152  17.021
  400TMC3    C5 5975   4.559   0.236  16.915
  400TMC3    C6 5976   4.477   0.196  16.814
  400TMC3     C 5977   4.665   4.720  17.065
  400TMC3     O 5978   4.667   4.610  17.012
  400TMC3     H 5979   4.511   4.678  16.860
  400TMC3    H1 5980   4.669   0.190  17.087
  400TMC3    H2 5981   4.448   0.261  16.731
  400TMC3    C7 5982   4.593   0.376  16.934
  400TMC3    C8 5983   4.318   0.040  16.737
  400TMC3    O1 5984   4.609   0.446  16.834
  400TMC3    O2 5985   4.225   0.120  16.742
  401MPD2     C 5986   2.529   3.334  18.326
  401MPD2    C1 5987   2.623   3.267  18.401
  401MPD2    C2 5988   2.613   3.128  18.398
  401MPD2    C3 5989   2.530   3.057  18.316
  401MPD2    C4 5990   2.445   3.131  18.231
  401MPD2    C5 5991   2.447   3.263  18.241
  401MPD2     H 5992   2.680   3.066  18.456
  401MPD2    H1 5993   2.369   3.082  18.172
  401MPD2    H2 5994   2.527   3.442  18.326
  401MPD2    H3 5995   2.379   3.316  18.174
  401MPD2     N 5996   2.521   2.917  18.342
  401MPD2    H5 5997   2.579   2.885  18.418
  401MPD2    N1 5998   2.716   3.328  18.484
  401MPD2    H7 5999   2.778   3.269  18.539
  402TMC3    C1 6000   2.470   2.695  18.293
  402TMC3    C2 6001   2.489   2.658  18.428
  402TMC3    C3 6002   2.545   2.539  18.452
  402TMC3    C4 6003   2.489   2.609  18.186
  402TMC3    C5 6004   2.557   2.494  18.213
  402TMC3    C6 6005   2.589   2.465  18.345
  402TMC3     C 6006   2.458   2.829  18.259
  402TMC3     O 6007   2.410   2.850  18.150
  402TMC3     H 6008   2.460   2.729  18.505
  402TMC3    H1 6009   2.501   2.651  18.087
  402TMC3    H2 6010   2.646   2.374  18.362
  402TMC3    C7 6011   2.650   2.439  18.117
  402TMC3    C8 6012   2.584   2.491  18.588
  402TMC3    O1 6013   2.616   2.474  18.004
  402TMC3    O2 6014   2.689   2.429  18.596
  403MPD2     C 6015   1.449   1.596  13.452
  403MPD2    C1 6016   1.384   1.532  13.557
  403MPD2    C2 6017   1.443   1.524  13.682
  403MPD2    C3 6018   1.564   1.589  13.702
  403MPD2    C4 6019   1.619   1.665  13.604
  403MPD2    C5 6020   1.564   1.661  13.481
  403MPD2     H 6021   1.404   1.448  13.748
  403MPD2    H1 6022   1.719   1.704  13.622
  403MPD2    H2 6023   1.404   1.595  13.353
  403MPD2    H3 6024   1.609   1.705  13.392
  403MPD2     N 6025   1.626   1.586  13.829
  403MPD2    H5 6026   1.595   1.513  13.893
  403MPD2    N1 6027   1.260   1.469  13.514
  403MPD2    H7 6028   1.240   1.478  13.415
  404TMC3    C1 6029   1.040   1.400  13.548
  404TMC3    C2 6030   0.963   1.339  13.633
  404TMC3    C3 6031   0.892   1.232  13.573
  404TMC3    C4 6032   1.021   1.403  13.414
  404TMC3    C5 6033   0.952   1.292  13.358
  404TMC3    C6 6034   0.878   1.207  13.435
  404TMC3     C 6035   1.167   1.429  13.605
  404TMC3     O 6036   1.179   1.436  13.727
  404TMC3     H 6037   0.984   1.344  13.739
  404TMC3    H1 6038   1.073   1.472  13.349
  404TMC3    H2 6039   0.822   1.119  13.405
  404TMC3    C7 6040   0.957   1.275  13.210
  404TMC3    C8 6041   0.858   1.118  13.656
  404TMC3    O1 6042   1.041   1.344  13.157
  404TMC3    O2 6043   0.862   1.006  13.608
  405MPD2     C 6044   1.518   2.366  15.176
  405MPD2    C1 6045   1.470   2.271  15.092
  405MPD2    C2 6046   1.346   2.282  15.033
  405MPD2    C3 6047   1.263   2.387  15.067
  405MPD2    C4 6048   1.319   2.492  15.136
  405MPD2    C5 6049   1.448   2.485  15.182
  405MPD2     H 6050   1.299   2.205  14.973
  405MPD2    H1 6051   1.274   2.589  15.153
  405MPD2    H2 6052   1.615   2.350  15.223
  405MPD2    H3 6053   1.481   2.572  15.237
  405MPD2     N 6054   1.128   2.386  15.014
  405MPD2    H5 6055   1.120   2.322  14.936
  405MPD2    N1 6056   1.534   2.146  15.083
  405MPD2    H7 6057   1.603   2.116  15.151
  406TMC3    C1 6058   0.713   2.488  14.847
  406TMC3    C2 6059   0.709   2.367  14.784
  406TMC3    C3 6060   0.812   2.284  14.800
  406TMC3    C4 6061   0.801   2.516  14.946
  406TMC3    C5 6062   0.911   2.430  14.959
  406TMC3    C6 6063   0.912   2.316  14.889
  406TMC3     C 6064   0.629   2.596  14.801
  406TMC3     O 6065   0.599   2.693  14.870
  406TMC3     H 6066   0.621   2.333  14.731
  406TMC3    H1 6067   0.798   2.615  14.990
  406TMC3    H2 6068   0.999   2.251  14.893
  406TMC3    C7 6069   1.025   2.467  15.042
  406TMC3    C8 6070   0.838   2.202  14.683
  406TMC3    O1 6071   1.015   2.559  15.123
  406TMC3    O2 6072   0.808   2.244  14.565
  407MPD2     C 6073   3.513   3.810   9.861
  407MPD2    C1 6074   3.639   3.827   9.916
  407MPD2    C2 6075   3.650   3.872  10.043
  407MPD2    C3 6076   3.539   3.903  10.114
  407MPD2    C4 6077   3.413   3.896  10.062
  407MPD2    C5 6078   3.400   3.847   9.930
  407MPD2     H 6079   3.750   3.884  10.083
  407MPD2    H1 6080   3.328   3.932  10.119
  407MPD2    H2 6081   3.499   3.793   9.755
  407MPD2    H3 6082   3.304   3.847   9.881
  407MPD2     N 6083   3.547   3.957  10.246
  407MPD2    H5 6084   3.469   4.017  10.274
  407MPD2    N1 6085   3.760   3.798   9.845
  407MPD2    H7 6086   3.849   3.802   9.894
  408TMC3    C1 6087   3.908   3.817   9.675
  408TMC3    C2 6088   4.008   3.719   9.706
  408TMC3    C3 6089   4.139   3.749   9.681
  408TMC3    C4 6090   3.943   3.921   9.595
  408TMC3    C5 6091   4.072   3.936   9.550
  408TMC3    C6 6092   4.174   3.853   9.594
  408TMC3     C 6093   3.775   3.791   9.706
  408TMC3     O 6094   3.694   3.803   9.616
  408TMC3     H 6095   3.983   3.634   9.769
  408TMC3    H1 6096   3.869   3.999   9.583
  408TMC3    H2 6097   4.268   3.838   9.542
  408TMC3    C7 6098   4.127   4.049   9.478
  408TMC3    C8 6099   4.225   3.638   9.703
  408TMC3    O1 6100   4.250   4.045   9.469
  408TMC3    O2 6101   4.173   3.528   9.703
  409MPD2     C 6102   3.376   4.164  16.825
  409MPD2    C1 6103   3.428   4.166  16.946
  409MPD2    C2 6104   3.520   4.266  16.982
  409MPD2    C3 6105   3.568   4.353  16.881
  409MPD2    C4 6106   3.509   4.344  16.754
  409MPD2    C5 6107   3.421   4.247  16.727
  409MPD2     H 6108   3.569   4.276  17.078
  409MPD2    H1 6109   3.531   4.411  16.672
  409MPD2    H2 6110   3.317   4.080  16.789
  409MPD2    H3 6111   3.382   4.238  16.626
  409MPD2     N 6112   3.662   4.456  16.900
  409MPD2    H5 6113   3.664   4.524  16.825
  409MPD2    N1 6114   3.398   4.067  17.049
  409MPD2    H7 6115   3.436   4.078  17.142
  410TMC3    C1 6116   3.775   4.611  17.009
  410TMC3    C2 6117   3.904   4.629  17.051
  410TMC3    C3 6118   3.967   4.742  17.003
  410TMC3    C4 6119   3.722   4.701  16.915
  410TMC3    C5 6120   3.794   0.002  16.871
  410TMC3    C6 6121   3.923   0.029  16.914
  410TMC3     C 6122   3.722   4.481  17.018
  410TMC3     O 6123   3.741   4.409  17.120
  410TMC3     H 6124   3.937   4.586  17.145
  410TMC3    H1 6125   3.622   4.680  16.879
  410TMC3    H2 6126   3.990   0.100  16.868
  410TMC3    C7 6127   3.758   0.058  16.741
  410TMC3    C8 6128   4.089   4.774  17.071
  410TMC3    O1 6129   3.669   0.004  16.677
  410TMC3    O2 6130   4.125   0.083  17.091
  411MPD2     C 6131   3.725   0.209  14.588
  411MPD2    C1 6132   3.663   0.230  14.710
  411MPD2    C2 6133   3.577   0.131  14.757
  411MPD2    C3 6134   3.542   0.028  14.681
  411MPD2    C4 6135   3.608   0.000  14.566
  411MPD2    C5 6136   3.710   0.085  14.527
  411MPD2     H 6137   3.533   0.137  14.856
  411MPD2    H1 6138   3.594   4.707  14.522
  411MPD2    H2 6139   3.782   0.292  14.548
  411MPD2    H3 6140   3.774   0.051  14.446
  411MPD2     N 6141   3.448   4.732  14.716
  411MPD2    H5 6142   3.433   4.655  14.652
  411MPD2    N1 6143   3.677   0.359  14.768
  411MPD2    H7 6144   3.727   0.427  14.712
  412TMC3    C1 6145   3.265   4.630  14.816
  412TMC3    C2 6146   3.142   4.668  14.858
  412TMC3    C3 6147   3.030   4.613  14.805
  412TMC3    C4 6148   3.276   4.541  14.707
  412TMC3    C5 6149   3.164   4.482  14.666
  412TMC3    C6 6150   3.043   4.516  14.716
  412TMC3     C 6151   3.364   4.730  14.832
  412TMC3     O 6152   3.343   0.016  14.907
  412TMC3     H 6153   3.133   4.729  14.947
  412TMC3    H1 6154   3.372   4.496  14.684
  412TMC3    H2 6155   2.956   4.485  14.658
  412TMC3    C7 6156   3.173   4.381  14.558
  412TMC3    C8 6157   2.904   4.678  14.854
  412TMC3    O1 6158   3.086   4.294  14.568
  412TMC3    O2 6159   2.926   4.797  14.883
  413MPD2     C 6160   0.797   3.647  15.653
  413MPD2    C1 6161   0.716   3.556  15.588
  413MPD2    C2 6162   0.769   3.467  15.501
  413MPD2    C3 6163   0.905   3.462  15.473
  413MPD2    C4 6164   0.982   3.546  15.556
  413MPD2    C5 6165   0.930   3.637  15.643
  413MPD2     H 6166   0.716   3.399  15.436
  413MPD2    H1 6167   1.088   3.527  15.564
  413MPD2    H2 6168   0.761   3.730  15.713
  413MPD2    H3 6169   1.001   3.705  15.688
  413MPD2     N 6170   0.949   3.358  15.386
  413MPD2    H5 6171   0.876   3.304  15.341
  413MPD2    N1 6172   0.577   3.578  15.591
  413MPD2    H7 6173   0.549   3.642  15.666
  414TMC3    C1 6174   1.085   3.188  15.300
  414TMC3    C2 6175   1.151   3.084  15.355
  414TMC3    C3 6176   1.144   2.960  15.297
  414TMC3    C4 6177   1.030   3.184  15.177
  414TMC3    C5 6178   1.033   3.057  15.111
  414TMC3    C6 6179   1.074   2.951  15.180
  414TMC3     C 6180   1.081   3.312  15.375
  414TMC3     O 6181   1.180   3.346  15.439
  414TMC3     H 6182   1.208   3.106  15.445
  414TMC3    H1 6183   0.995   3.263  15.113
  414TMC3    H2 6184   1.065   2.850  15.140
  414TMC3    C7 6185   0.941   3.059  14.994
  414TMC3    C8 6186   1.204   2.840  15.349
  414TMC3    O1 6187   0.853   3.141  15.001
  414TMC3    O2 6188   1.157   2.732  15.318
  415TMC3    C1 6189   1.105   1.244  10.499
  415TMC3    C2 6190   1.154   1.324  10.397
  415TMC3    C3 6191   1.131   1.276  10.271
  415TMC3    C4 6192   1.032   1.132  10.481
  415TMC3    C5 6193   1.035   1.069  10.356
  415TMC3    C6 6194   1.083   1.147  10.251
  415TMC3     C 6195   1.157   1.261  10.628
  415TMC3     O 6196   1.101   1.203  10.723
  415TMC3     H 6197   1.204   1.417  10.419
  415TMC3    H1 6198   1.020   1.069  10.568
  415TMC3    H2 6199   1.088   1.110  10.148
  415TMC3    C7 6200   1.057   0.923  10.345
  415TMC3    C8 6201   1.138   1.363  10.156
  415TMC3    O1 6202   1.088   0.888  10.233
  415TMC3    O2 6203   1.052   1.339  10.069
  416MPD2     C 6204   3.155   0.196  11.832
  416MPD2    C1 6205   3.021   0.217  11.786
  416MPD2    C2 6206   2.978   0.156  11.669
  416MPD2    C3 6207   3.055   0.060  11.611
  416MPD2    C4 6208   3.176   0.021  11.668
  416MPD2    C5 6209   3.226   0.093  11.776
  416MPD2     H 6210   2.879   0.172  11.629
  416MPD2    H1 6211   3.241   4.750  11.626
  416MPD2    H2 6212   3.187   0.249  11.921
  416MPD2    H3 6213   3.324   0.072  11.817
  416MPD2     N 6214   3.022   4.800  11.488
  416MPD2    H5 6215   3.072   4.718  11.455
  416MPD2    N1 6216   2.946   0.313  11.864
  416MPD2    H7 6217   2.992   0.354  11.944
  417TMC3    C1 6218   2.759   0.417  11.954
  417TMC3    C2 6219   2.786   0.383  12.091
  417TMC3    C3 6220   2.754   0.485  12.179
  417TMC3    C4 6221   2.676   0.515  11.911
  417TMC3    C5 6222   2.639   0.604  12.007
  417TMC3    C6 6223   2.691   0.603  12.136
  417TMC3     C 6224   2.814   0.339  11.845
  417TMC3     O 6225   2.729   0.291  11.777
  417TMC3     H 6226   2.854   0.303  12.118
  417TMC3    H1 6227   2.659   0.531  11.805
  417TMC3    H2 6228   2.650   0.664  12.216
  417TMC3    C7 6229   2.547   0.707  11.965
  417TMC3    C8 6230   2.729   0.450  12.315
  417TMC3    O1 6231   2.534   0.738  11.846
  417TMC3    O2 6232   2.732   0.537  12.401
  418TMC3    C1 6233   1.875   1.923  18.572
  418TMC3    C2 6234   1.765   1.844  18.545
  418TMC3    C3 6235   1.651   1.864  18.622
  418TMC3    C4 6236   1.876   1.997  18.684
  418TMC3    C5 6237   1.773   1.998  18.768
  418TMC3    C6 6238   1.655   1.945  18.734
  418TMC3     C 6239   1.974   1.952  18.470
  418TMC3     O 6240   2.029   2.064  18.480
  418TMC3     H 6241   1.771   1.778  18.459
  418TMC3    H1 6242   1.947   2.078  18.695
  418TMC3    H2 6243   1.567   1.972  18.790
  418TMC3    C7 6244   1.784   2.084  18.883
  418TMC3    C8 6245   1.517   1.868  18.553
  418TMC3    O1 6246   1.874   2.165  18.876
  418TMC3    O2 6247   1.452   1.972  18.549
  419MPD2     C 6248   0.501   4.774  12.936
  419MPD2    C1 6249   0.369   4.784  12.889
  419MPD2    C2 6250   0.263   0.032  12.969
  419MPD2    C3 6251   0.292   0.078  13.098
  419MPD2    C4 6252   0.424   0.066  13.143
  419MPD2    C5 6253   0.524   0.009  13.062
  419MPD2     H 6254   0.162   0.044  12.932
  419MPD2    H1 6255   0.456   0.110  13.237
  419MPD2    H2 6256   0.580   4.748  12.866
  419MPD2    H3 6257   0.630   0.003  13.087
  419MPD2     N 6258   0.191   0.153  13.167
  419MPD2    H5 6259   0.108   0.173  13.112
  419MPD2    N1 6260   0.328   4.757  12.755
  419MPD2    H7 6261   0.229   4.777  12.741
  420TMC3    C1 6262   0.080   0.285  13.333
  420TMC3    C2 6263   4.781   0.310  13.238
  420TMC3    C3 6264   4.736   0.439  13.226
  420TMC3    C4 6265   0.126   0.391  13.409
  420TMC3    C5 6266   0.048   0.500  13.420
  420TMC3    C6 6267   4.771   0.536  13.318
  420TMC3     C 6268   0.195   0.206  13.292
  420TMC3     O 6269   0.286   0.207  13.372
  420TMC3     H 6270   4.749   0.228  13.175
  420TMC3    H1 6271   0.207   0.380  13.481
  420TMC3    H2 6272   4.713   0.627  13.306
  420TMC3    C7 6273   4.775   0.488  13.535
  420TMC3    C8 6274   4.617   0.477  13.144
  420TMC3    O1 6275   0.003   0.412  13.625
  420TMC3    O2 6276   4.603   0.595  13.123
  421TMC3    C1 6277   1.769   1.617  14.009
  421TMC3    C2 6278   1.779   1.708  14.112
  421TMC3    C3 6279   1.821   1.674  14.230
  421TMC3    C4 6280   1.808   1.490  14.016
  421TMC3    C5 6281   1.876   1.460  14.131
  421TMC3    C6 6282   1.871   1.539  14.240
  421TMC3     C 6283   1.727   1.663  13.879
  421TMC3     O 6284   1.767   1.772  13.837
  421TMC3     H 6285   1.745   1.810  14.098
  421TMC3    H1 6286   1.804   1.421  13.933
  421TMC3    H2 6287   1.923   1.516  14.332
  421TMC3    C7 6288   1.915   1.317  14.148
  421TMC3    C8 6289   1.881   1.777  14.305
  421TMC3    O1 6290   1.970   1.262  14.057
  421TMC3    O2 6291   1.984   1.756  14.366
  422TMC3    C1 6292   3.809   3.265  12.974
  422TMC3    C2 6293   3.778   3.378  13.047
  422TMC3    C3 6294   3.650   3.391  13.094
  422TMC3    C4 6295   3.711   3.177  12.927
  422TMC3    C5 6296   3.584   3.188  12.978
  422TMC3    C6 6297   3.554   3.296  13.058
  422TMC3     C 6298   3.949   3.251  12.922
  422TMC3     O 6299   4.021   3.351  12.912
  422TMC3     H 6300   3.853   3.453  13.067
  422TMC3    H1 6301   3.735   3.094  12.861
  422TMC3    H2 6302   3.452   3.299  13.094
  422TMC3    C7 6303   3.502   3.071  12.962
  422TMC3    C8 6304   3.607   3.524  13.136
  422TMC3    O1 6305   3.529   3.003  12.864
  422TMC3    O2 6306   3.689   3.618  13.117
  423MPD2     C 6307   0.151   4.272  18.544
  423MPD2    C1 6308   0.195   4.142  18.554
  423MPD2    C2 6309   0.228   4.062  18.448
  423MPD2    C3 6310   0.177   4.097  18.327
  423MPD2    C4 6311   0.129   4.225  18.307
  423MPD2    C5 6312   0.129   4.314  18.416
  423MPD2     H 6313   0.270   3.965  18.469
  423MPD2    H1 6314   0.079   4.261  18.218
  423MPD2    H2 6315   0.119   4.339  18.623
  423MPD2    H3 6316   0.104   4.415  18.385
  423MPD2     N 6317   0.187   4.013  18.212
  423MPD2    H5 6318   0.176   4.047  18.117
  423MPD2    N1 6319   0.228   4.094  18.681
  423MPD2    H7 6320   0.287   4.012  18.693
  424TMC3    C1 6321   0.215   4.055  18.902
  424TMC3    C2 6322   0.349   4.024  18.902
  424TMC3    C3 6323   0.391   3.954  19.010
  424TMC3    C4 6324   0.132   4.044  19.012
  424TMC3    C5 6325   0.185   3.980  19.119
  424TMC3    C6 6326   0.305   3.921  19.118
  424TMC3     C 6327   0.162   4.138  18.798
  424TMC3     O 6328   0.050   4.185  18.807
  424TMC3     H 6329   0.413   4.074  18.831
  424TMC3    H1 6330   0.025   4.065  19.009
  424TMC3    H2 6331   0.341   3.879  19.212
  424TMC3    C7 6332   0.126   3.999  19.248
  424TMC3    C8 6333   0.530   3.898  19.006
  424TMC3    O1 6334   0.160   3.928  19.337
  424TMC3    O2 6335   0.569   3.842  19.107
  425MPD2     C 6336   4.442   3.336  17.713
  425MPD2    C1 6337   4.406   3.239  17.625
  425MPD2    C2 6338   4.272   3.228  17.587
  425MPD2    C3 6339   4.179   3.307  17.656
  425MPD2    C4 6340   4.219   3.403  17.748
  425MPD2    C5 6341   4.354   3.416  17.781
  425MPD2     H 6342   4.243   3.150  17.518
  425MPD2    H1 6343   4.150   3.456  17.814
  425MPD2    H2 6344   4.544   3.347  17.751
  425MPD2    H3 6345   4.377   3.491  17.856
  425MPD2     N 6346   4.040   3.275  17.639
  425MPD2    H5 6347   4.022   3.186  17.594
  425MPD2    N1 6348   4.503   3.141  17.588
  425MPD2    H7 6349   4.588   3.148  17.643
  426TMC3    C1 6350   4.585   2.949  17.471
  426TMC3    C2 6351   4.565   2.858  17.365
  426TMC3    C3 6352   4.633   2.737  17.379
  426TMC3    C4 6353   4.659   2.917  17.581
  426TMC3    C5 6354   4.735   2.801  17.578
  426TMC3    C6 6355   4.718   2.706  17.481
  426TMC3     C 6356   4.490   3.050  17.479
  426TMC3     O 6357   4.406   3.041  17.392
  426TMC3     H 6358   4.520   2.887  17.271
  426TMC3    H1 6359   4.649   2.971  17.674
  426TMC3    H2 6360   4.780   2.617  17.475
  426TMC3    C7 6361   4.774   2.743  17.701
  426TMC3    C8 6362   4.585   2.627  17.299
  426TMC3    O1 6363   0.078   2.683  17.681
  426TMC3    O2 6364   4.659   2.531  17.294
  427MPD2     C 6365   2.655   0.177  15.117
  427MPD2    C1 6366   2.676   0.220  15.246
  427MPD2    C2 6367   2.593   0.313  15.302
  427MPD2    C3 6368   2.483   0.352  15.229
  427MPD2    C4 6369   2.460   0.307  15.100
  427MPD2    C5 6370   2.556   0.223  15.040
  427MPD2     H 6371   2.617   0.356  15.399
  427MPD2    H1 6372   2.369   0.338  15.049
  427MPD2    H2 6373   2.723   0.106  15.071
  427MPD2    H3 6374   2.544   0.197  14.936
  427MPD2     N 6375   2.384   0.447  15.279
  427MPD2    H5 6376   2.301   0.450  15.221
  427MPD2    N1 6377   2.779   0.163  15.326
  427MPD2    H7 6378   2.797   0.210  15.414
  428TMC3    C1 6379   2.911   0.005  15.428
  428TMC3    C2 6380   2.910   4.686  15.477
  428TMC3    C3 6381   3.005   4.651  15.571
  428TMC3    C4 6382   3.008   0.101  15.472
  428TMC3    C5 6383   3.090   0.069  15.579
  428TMC3    C6 6384   3.093   4.746  15.617
  428TMC3     C 6385   2.847   0.044  15.301
  428TMC3     O 6386   2.840   4.774  15.204
  428TMC3     H 6387   2.836   4.613  15.443
  428TMC3    H1 6388   3.025   0.193  15.417
  428TMC3    H2 6389   3.163   4.723  15.696
  428TMC3    C7 6390   3.206   0.145  15.614
  428TMC3    C8 6391   3.026   4.510  15.602
  428TMC3    O1 6392   3.247   0.129  15.728
  428TMC3    O2 6393   2.962   4.438  15.528
  429MPD2     C 6394   3.621   0.307  17.840
  429MPD2    C1 6395   3.744   0.268  17.793
  429MPD2    C2 6396   3.847   0.360  17.762
  429MPD2    C3 6397   3.825   0.493  17.761
  429MPD2    C4 6398   3.702   0.538  17.811
  429MPD2    C5 6399   3.603   0.445  17.840
  429MPD2     H 6400   3.943   0.323  17.728
  429MPD2    H1 6401   3.684   0.644  17.818
  429MPD2    H2 6402   3.548   0.234  17.872
  429MPD2    H3 6403   3.507   0.478  17.877
  429MPD2     N 6404   3.926   0.576  17.703
  429MPD2    H5 6405   4.002   0.531  17.654
  429MPD2    N1 6406   3.777   0.127  17.780
  429MPD2    H7 6407   3.875   0.108  17.762
  430TMC3    C1 6408   4.015   0.760  17.593
  430TMC3    C2 6409   3.978   0.864  17.515
  430TMC3    C3 6410   4.079   0.925  17.440
  430TMC3    C4 6411   4.144   0.719  17.600
  430TMC3    C5 6412   4.233   0.770  17.513
  430TMC3    C6 6413   4.202   0.876  17.430
  430TMC3     C 6414   3.914   0.707  17.685
  430TMC3     O 6415   3.825   0.782  17.714
  430TMC3     H 6416   3.877   0.901  17.504
  430TMC3    H1 6417   4.161   0.639  17.672
  430TMC3    H2 6418   4.263   0.909  17.347
  430TMC3    C7 6419   4.348   0.699  17.465
  430TMC3    C8 6420   4.030   0.966  17.307
  430TMC3    O1 6421   4.358   0.586  17.517
  430TMC3    O2 6422   3.941   0.898  17.260
  431MPD2     C 6423   4.760   0.442  12.772
  431MPD2    C1 6424   0.044   0.474  12.677
  431MPD2    C2 6425   0.059   0.393  12.568
  431MPD2    C3 6426   4.793   0.271  12.570
  431MPD2    C4 6427   4.693   0.246  12.661
  431MPD2    C5 6428   4.674   0.334  12.763
  431MPD2     H 6429   0.130   0.410  12.488
  431MPD2    H1 6430   4.634   0.155  12.656
  431MPD2    H2 6431   4.748   0.511  12.855
  431MPD2    H3 6432   4.596   0.300  12.830
  431MPD2     N 6433   0.019   0.162  12.481
  431MPD2    H5 6434   4.796   0.071  12.516
  431MPD2    N1 6435   0.120   0.596  12.677
  431MPD2    H7 6436   0.166   0.624  12.591
  432TMC3    C1 6437   0.194   0.036  12.380
  432TMC3    C2 6438   0.276   0.025  12.273
  432TMC3    C3 6439   0.400   4.787  12.298
  432TMC3    C4 6440   0.228   4.790  12.507
  432TMC3    C5 6441   0.357   4.740  12.524
  432TMC3    C6 6442   0.444   4.745  12.423
  432TMC3     C 6443   0.121   0.165  12.383
  432TMC3     O 6444   0.160   0.255  12.312
  432TMC3     H 6445   0.246   0.062  12.176
  432TMC3    H1 6446   0.165   4.805  12.595
  432TMC3    H2 6447   0.545   4.715  12.446
  432TMC3    C7 6448   0.417   4.733  12.651
  432TMC3    C8 6449   0.482   4.758  12.182
  432TMC3    O1 6450   0.536   4.709  12.656
  432TMC3    O2 6451   0.432   4.711  12.082
  433MPD2     C 6452   3.697   4.170  11.044
  433MPD2    C1 6453   3.658   4.080  11.141
  433MPD2    C2 6454   3.699   4.105  11.271
  433MPD2    C3 6455   3.770   4.217  11.306
  433MPD2    C4 6456   3.794   4.309  11.206
  433MPD2    C5 6457   3.755   4.290  11.080
  433MPD2     H 6458   3.679   4.036  11.352
  433MPD2    H1 6459   3.842   4.403  11.232
  433MPD2    H2 6460   3.662   4.155  10.943
  433MPD2    H3 6461   3.786   4.363  11.007
  433MPD2     N 6462   3.801   4.235  11.440
  433MPD2    H5 6463   3.765   4.174  11.512
  433MPD2    N1 6464   3.589   3.956  11.106
  433MPD2    H7 6465   3.592   3.929  11.008
  434TMC3    C1 6466   3.529   3.733  11.136
  434TMC3    C2 6467   3.591   3.645  11.217
  434TMC3    C3 6468   3.663   3.537  11.158
  434TMC3    C4 6469   3.518   3.716  11.002
  434TMC3    C5 6470   3.592   3.613  10.939
  434TMC3    C6 6471   3.661   3.517  11.019
  434TMC3     C 6472   3.541   3.865  11.195
  434TMC3     O 6473   3.509   3.880  11.310
  434TMC3     H 6474   3.610   3.670  11.321
  434TMC3    H1 6475   3.450   3.774  10.941
  434TMC3    H2 6476   3.736   3.448  10.982
  434TMC3    C7 6477   3.570   3.586  10.797
  434TMC3    C8 6478   3.750   3.452  11.239
  434TMC3    O1 6479   3.521   3.673  10.724
  434TMC3    O2 6480   3.733   3.463  11.362
  435MPD2     C 6481   1.179   3.939  15.624
  435MPD2    C1 6482   1.131   3.920  15.746
  435MPD2    C2 6483   1.224   3.868  15.842
  435MPD2    C3 6484   1.356   3.828  15.803
  435MPD2    C4 6485   1.392   3.853  15.672
  435MPD2    C5 6486   1.304   3.913  15.584
  435MPD2     H 6487   1.198   3.840  15.943
  435MPD2    H1 6488   1.494   3.847  15.637
  435MPD2    H2 6489   1.123   4.004  15.558
  435MPD2    H3 6490   1.334   3.947  15.486
  435MPD2     N 6491   1.441   3.772  15.897
  435MPD2    H5 6492   1.403   3.749  15.989
  435MPD2    N1 6493   1.004   3.957  15.795
  435MPD2    H7 6494   0.999   3.923  15.890
  436TMC3    C1 6495   0.651   4.094  15.976
  436TMC3    C2 6496   0.772   4.058  15.928
  436TMC3    C3 6497   0.777   4.034  15.794
  436TMC3    C4 6498   0.529   4.086  15.906
  436TMC3    C5 6499   0.542   4.070  15.772
  436TMC3    C6 6500   0.663   4.043  15.716
  436TMC3     C 6501   0.651   4.137  16.118
  436TMC3     O 6502   0.761   4.154  16.167
  436TMC3     H 6503   0.864   4.052  15.985
  436TMC3    H1 6504   0.434   4.112  15.952
  436TMC3    H2 6505   0.670   4.020  15.611
  436TMC3    C7 6506   0.430   4.059  15.678
  436TMC3    C8 6507   0.904   4.016  15.723
  436TMC3    O1 6508   0.460   4.092  15.561
  436TMC3    O2 6509   0.904   4.055  15.604
  437TMC3    C1 6510   4.613   1.175  12.483
  437TMC3    C2 6511   4.537   1.283  12.506
  437TMC3    C3 6512   4.516   1.365  12.401
  437TMC3    C4 6513   4.679   1.158  12.366
  437TMC3    C5 6514   4.664   1.250  12.269
  437TMC3    C6 6515   4.570   1.347  12.274
  437TMC3     C 6516   4.714   1.157  12.586
  437TMC3     O 6517   0.025   1.202  12.560
  437TMC3     H 6518   4.495   1.312  12.601
  437TMC3    H1 6519   4.751   1.077  12.354
  437TMC3    H2 6520   4.558   1.416  12.192
  437TMC3    C7 6521   4.775   1.294  12.203
  437TMC3    C8 6522   4.392   1.452  12.401
  437TMC3    O1 6523   4.758   1.368  12.109
  437TMC3    O2 6524   4.332   1.468  12.297
  438MPD2     C 6525   2.054   2.055  17.283
  438MPD2    C1 6526   2.089   1.920  17.304
  438MPD2    C2 6527   2.088   1.875  17.430
  438MPD2    C3 6528   2.059   1.954  17.537
  438MPD2    C4 6529   2.036   2.086  17.516
  438MPD2    C5 6530   2.030   2.135  17.392
  438MPD2     H 6531   2.121   1.772  17.438
  438MPD2    H1 6532   2.005   2.153  17.597
  438MPD2    H2 6533   2.045   2.102  17.185
  438MPD2    H3 6534   2.018   2.240  17.371
  438MPD2     N 6535   2.064   1.906  17.667
  438MPD2    H5 6536   2.059   1.978  17.738
  438MPD2    N1 6537   2.137   1.835  17.192
  438MPD2    H7 6538   2.161   1.739  17.214
  439TMC3    C1 6539   2.241   1.780  16.995
  439TMC3    C2 6540   2.228   1.750  16.861
  439TMC3    C3 6541   2.296   1.644  16.807
  439TMC3    C4 6542   2.333   1.706  17.072
  439TMC3    C5 6543   2.390   1.597  17.014
  439TMC3    C6 6544   2.361   1.554  16.885
  439TMC3     C 6545   2.150   1.871  17.059
  439TMC3     O 6546   2.095   1.960  16.996
  439TMC3     H 6547   2.178   1.822  16.797
  439TMC3    H1 6548   2.357   1.734  17.174
  439TMC3    H2 6549   2.421   1.471  16.848
  439TMC3    C7 6550   2.480   1.512  17.085
  439TMC3    C8 6551   2.333   1.639  16.667
  439TMC3    O1 6552   2.564   1.576  17.148
  439TMC3    O2 6553   2.424   1.563  16.644
  440MPD2     C 6554   0.637   2.268  15.243
  440MPD2    C1 6555   0.735   2.358  15.286
  440MPD2    C2 6556   0.858   2.311  15.323
  440MPD2    C3 6557   0.891   2.175  15.322
  440MPD2    C4 6558   0.790   2.093  15.283
  440MPD2    C5 6559   0.667   2.137  15.230
  440MPD2     H 6560   0.928   2.388  15.355
  440MPD2    H1 6561   0.805   1.985  15.279
  440MPD2    H2 6562   0.535   2.298  15.222
  440MPD2    H3 6563   0.589   2.072  15.192
  440MPD2     N 6564   1.018   2.120  15.363
  440MPD2    H5 6565   1.022   2.019  15.359
  440MPD2    N1 6566   0.721   2.500  15.292
  440MPD2    H7 6567   0.806   2.545  15.323
  441TMC3    C1 6568   1.242   2.119  15.429
  441TMC3    C2 6569   1.346   2.194  15.430
  441TMC3    C3 6570   1.434   2.184  15.532
  441TMC3    C4 6571   1.218   2.033  15.531
  441TMC3    C5 6572   1.308   2.017  15.630
  441TMC3    C6 6573   1.417   2.096  15.639
  441TMC3     C 6574   1.125   2.193  15.392
  441TMC3     O 6575   1.135   2.310  15.415
  441TMC3     H 6576   1.353   2.268  15.351
  441TMC3    H1 6577   1.123   1.983  15.544
  441TMC3    H2 6578   1.486   2.089  15.723
  441TMC3    C7 6579   1.276   1.911  15.724
  441TMC3    C8 6580   1.489   2.308  15.576
  441TMC3    O1 6581   1.161   1.861  15.710
  441TMC3    O2 6582   1.575   2.305  15.661
  442MPD2     C 6583   4.040   2.821  16.793
  442MPD2    C1 6584   3.913   2.804  16.740
  442MPD2    C2 6585   3.889   2.689  16.664
  442MPD2    C3 6586   3.986   2.587  16.651
  442MPD2    C4 6587   4.097   2.602  16.725
  442MPD2    C5 6588   4.133   2.719  16.784
  442MPD2     H 6589   3.791   2.678  16.619
  442MPD2    H1 6590   4.160   2.515  16.715
  442MPD2    H2 6591   4.067   2.915  16.840
  442MPD2    H3 6592   4.233   2.730  16.826
  442MPD2     N 6593   3.964   2.462  16.591
  442MPD2    H5 6594   4.053   2.413  16.591
  442MPD2    N1 6595   3.823   2.913  16.738
  442MPD2    H7 6596   3.735   2.906  16.689
  443TMC3    C1 6597   3.732   3.109  16.804
  443TMC3    C2 6598   3.691   3.143  16.685
  443TMC3    C3 6599   3.571   3.211  16.675
  443TMC3    C4 6600   3.658   3.133  16.918
  443TMC3    C5 6601   3.533   3.200  16.910
  443TMC3    C6 6602   3.489   3.230  16.784
  443TMC3     C 6603   3.841   3.022  16.816
  443TMC3     O 6604   3.902   3.026  16.923
  443TMC3     H 6605   3.758   3.136  16.600
  443TMC3    H1 6606   3.693   3.091  17.011
  443TMC3    H2 6607   3.386   3.260  16.768
  443TMC3    C7 6608   3.434   3.173  17.015
  443TMC3    C8 6609   3.513   3.185  16.544
  443TMC3    O1 6610   3.434   3.066  17.073
  443TMC3    O2 6611   3.590   3.138  16.460
  444MPD2     C 6612   4.226   2.176  17.320
  444MPD2    C1 6613   4.128   2.088  17.270
  444MPD2    C2 6614   4.161   1.985  17.175
  444MPD2    C3 6615   4.289   1.972  17.135
  444MPD2    C4 6616   4.378   2.074  17.174
  444MPD2    C5 6617   4.349   2.162  17.269
  444MPD2     H 6618   4.081   1.920  17.143
  444MPD2    H1 6619   4.474   2.092  17.127
  444MPD2    H2 6620   4.216   2.250  17.398
  444MPD2    H3 6621   4.422   2.232  17.307
  444MPD2     N 6622   4.327   1.867  17.035
  444MPD2    H5 6623   4.247   1.808  17.015
  444MPD2    N1 6624   3.996   2.089  17.319
  444MPD2    H7 6625   3.932   2.035  17.261
  445TMC3    C1 6626   4.465   1.705  16.935
  445TMC3    C2 6627   4.355   1.693  16.849
  445TMC3    C3 6628   4.371   1.602  16.748
  445TMC3    C4 6629   4.574   1.624  16.928
  445TMC3    C5 6630   4.581   1.527  16.831
  445TMC3    C6 6631   4.489   1.527  16.727
  445TMC3     C 6632   4.457   1.822  17.018
  445TMC3     O 6633   4.566   1.865  17.054
  445TMC3     H 6634   4.267   1.755  16.846
  445TMC3    H1 6635   4.657   1.636  16.997
  445TMC3    H2 6636   4.497   1.460  16.642
  445TMC3    C7 6637   4.710   1.463  16.810
  445TMC3    C8 6638   4.256   1.565  16.669
  445TMC3    O1 6639   0.008   1.489  16.875
  445TMC3    O2 6640   4.166   1.646  16.656
  446MPD2     C 6641   3.525   3.411  11.832
  446MPD2    C1 6642   3.476   3.501  11.738
  446MPD2    C2 6643   3.570   3.575  11.667
  446MPD2    C3 6644   3.704   3.569  11.692
  446MPD2    C4 6645   3.746   3.478  11.783
  446MPD2    C5 6646   3.659   3.401  11.849
  446MPD2     H 6647   3.527   3.646  11.597
  446MPD2    H1 6648   3.851   3.461  11.804
  446MPD2    H2 6649   3.456   3.349  11.890
  446MPD2    H3 6650   3.697   3.328  11.921
  446MPD2     N 6651   3.788   3.652  11.614
  446MPD2    H5 6652   3.739   3.721  11.558
  446MPD2    N1 6653   3.340   3.526  11.712
  446MPD2    H7 6654   3.329   3.588  11.633
  447TMC3    C1 6655   4.000   3.744  11.531
  447TMC3    C2 6656   3.962   3.740  11.397
  447TMC3    C3 6657   4.058   3.731  11.301
  447TMC3    C4 6658   4.136   3.751  11.565
  447TMC3    C5 6659   4.228   3.733  11.464
  447TMC3    C6 6660   4.189   3.742  11.332
  447TMC3     C 6661   3.925   3.658  11.621
  447TMC3     O 6662   4.002   3.589  11.687
  447TMC3     H 6663   3.860   3.711  11.375
  447TMC3    H1 6664   4.155   3.746  11.672
  447TMC3    H2 6665   4.264   3.717  11.257
  447TMC3    C7 6666   4.366   3.697  11.503
  447TMC3    C8 6667   4.017   3.735  11.162
  447TMC3    O1 6668   4.438   3.653  11.413
  447TMC3    O2 6669   3.898   3.749  11.142
  448TMC3    C1 6670   2.041   3.594  17.110
  448TMC3    C2 6671   2.032   3.473  17.060
  448TMC3    C3 6672   2.060   3.363  17.141
  448TMC3    C4 6673   2.097   3.612  17.235
  448TMC3    C5 6674   2.126   3.501  17.312
  448TMC3    C6 6675   2.109   3.375  17.260
  448TMC3     C 6676   1.978   3.705  17.037
  448TMC3     O 6677   1.882   3.681  16.963
  448TMC3     H 6678   2.012   3.459  16.954
  448TMC3    H1 6679   2.101   3.706  17.288
  448TMC3    H2 6680   2.127   3.282  17.313
  448TMC3    C7 6681   2.190   3.506  17.442
  448TMC3    C8 6682   2.047   3.228  17.087
  448TMC3    O1 6683   2.236   3.614  17.468
  448TMC3    O2 6684   2.125   3.138  17.119
  449MPD2     C 6685   3.738   1.608  14.146
  449MPD2    C1 6686   3.607   1.631  14.093
  449MPD2    C2 6687   3.500   1.558  14.128
  449MPD2    C3 6688   3.523   1.458  14.226
  449MPD2    C4 6689   3.642   1.438  14.292
  449MPD2    C5 6690   3.748   1.513  14.245
  449MPD2     H 6691   3.406   1.588  14.084
  449MPD2    H1 6692   3.655   1.362  14.367
  449MPD2    H2 6693   3.824   1.665  14.114
  449MPD2    H3 6694   3.845   1.478  14.281
  449MPD2     N 6695   3.401   1.394  14.271
  449MPD2    H5 6696   3.318   1.414  14.217
  449MPD2    N1 6697   3.562   1.746  14.017
  449MPD2    H7 6698   3.469   1.752  13.976
  450TMC3    C1 6699   3.577   1.937  13.890
  450TMC3    C2 6700   3.620   1.937  13.761
  450TMC3    C3 6701   3.522   1.938  13.665
  450TMC3    C4 6702   3.448   1.957  13.916
  450TMC3    C5 6703   3.351   1.940  13.824
  450TMC3    C6 6704   3.394   1.929  13.695
  450TMC3     C 6705   3.648   1.836  13.971
  450TMC3     O 6706   3.771   1.855  13.989
  450TMC3     H 6707   3.720   1.899  13.745
  450TMC3    H1 6708   3.417   1.944  14.019
  450TMC3    H2 6709   3.323   1.933  13.614
  450TMC3    C7 6710   3.260   1.834  13.862
  450TMC3    C8 6711   3.546   1.847  13.554
  450TMC3    O1 6712   3.316   1.736  13.899
  450TMC3    O2 6713   3.453   1.795  13.495
  451MPD2     C 6714   0.370   0.897  19.609
  451MPD2    C1 6715   0.338   0.863  19.478
  451MPD2    C2 6716   0.396   0.748  19.437
  451MPD2    C3 6717   0.484   0.668  19.512
  451MPD2    C4 6718   0.515   0.705  19.640
  451MPD2    C5 6719   0.467   0.825  19.682
  451MPD2     H 6720   0.362   0.716  19.339
  451MPD2    H1 6721   0.588   0.650  19.700
  451MPD2    H2 6722   0.328   0.984  19.658
  451MPD2    H3 6723   0.488   0.850  19.786
  451MPD2     N 6724   0.515   0.542  19.467
  451MPD2    H5 6725   0.552   0.481  19.539
  451MPD2    N1 6726   0.247   0.946  19.404
  451MPD2    H7 6727   0.201   1.021  19.457
  452TMC3    C1 6728   0.466   0.356  19.335
  452TMC3    C2 6729   0.396   0.294  19.434
  452TMC3    C3 6730   0.330   0.178  19.402
  452TMC3    C4 6731   0.480   0.302  19.210
  452TMC3    C5 6732   0.417   0.188  19.187
  452TMC3    C6 6733   0.347   0.112  19.278
  452TMC3     C 6734   0.482   0.497  19.343
  452TMC3     O 6735   0.463   0.553  19.234
  452TMC3     H 6736   0.376   0.351  19.525
  452TMC3    H1 6737   0.533   0.353  19.131
  452TMC3    H2 6738   0.262   0.053  19.247
  452TMC3    C7 6739   0.397   0.167  19.045
  452TMC3    C8 6740   0.232   0.118  19.491
  452TMC3    O1 6741   0.410   0.270  18.976
  452TMC3    O2 6742   0.223   4.798  19.495
  453TMC3    C1 6743   0.963   2.439  12.130
  453TMC3    C2 6744   0.938   2.328  12.055
  453TMC3    C3 6745   0.910   2.357  11.925
  453TMC3    C4 6746   0.944   2.566  12.093
  453TMC3    C5 6747   0.899   2.595  11.965
  453TMC3    C6 6748   0.886   2.483  11.878
  453TMC3     C 6749   1.090   2.441  12.194
  453TMC3     O 6750   1.177   2.490  12.122
  453TMC3     H 6751   0.993   2.243  12.094
  453TMC3    H1 6752   0.989   2.642  12.156
  453TMC3    H2 6753   0.859   2.493  11.773
  453TMC3    C7 6754   0.982   2.690  11.896
  453TMC3    C8 6755   0.964   2.266  11.825
  453TMC3    O1 6756   0.944   2.773  11.815
  453TMC3    O2 6757   0.995   2.308  11.717
  454MPD2     C 6758   0.247   1.709  16.438
  454MPD2    C1 6759   0.188   1.806  16.356
  454MPD2    C2 6760   0.154   1.927  16.409
  454MPD2    C3 6761   0.159   1.947  16.547
  454MPD2    C4 6762   0.204   1.844  16.629
  454MPD2    C5 6763   0.249   1.727  16.575
  454MPD2     H 6764   0.115   2.000  16.339
  454MPD2    H1 6765   0.208   1.848  16.738
  454MPD2    H2 6766   0.284   1.616  16.395
  454MPD2    H3 6767   0.277   1.645  16.640
  454MPD2     N 6768   0.099   2.067  16.614
  454MPD2    H5 6769   0.075   2.070  16.712
  454MPD2    N1 6770   0.177   1.785  16.218
  454MPD2    H7 6771   0.130   1.861  16.169
  455TMC3    C1 6772   4.724   2.207  16.590
  455TMC3    C2 6773   4.699   2.217  16.727
  455TMC3    C3 6774   4.585   2.177  16.777
  455TMC3    C4 6775   4.626   2.159  16.513
  455TMC3    C5 6776   4.510   2.114  16.571
  455TMC3    C6 6777   4.483   2.124  16.701
  455TMC3     C 6778   0.058   2.174  16.543
  455TMC3     O 6779   0.080   2.209  16.428
  455TMC3     H 6780   4.783   2.244  16.789
  455TMC3    H1 6781   4.638   2.141  16.406
  455TMC3    H2 6782   4.409   2.057  16.744
  455TMC3    C7 6783   4.465   1.985  16.527
  455TMC3    C8 6784   4.550   2.256  16.892
  455TMC3    O1 6785   4.349   1.955  16.506
  455TMC3    O2 6786   4.648   2.298  16.951
  456MPD2     C 6787   2.259   2.049  16.350
  456MPD2    C1 6788   2.358   2.054  16.446
  456MPD2    C2 6789   2.330   2.081  16.576
  456MPD2    C3 6790   2.202   2.126  16.602
  456MPD2    C4 6791   2.101   2.123  16.504
  456MPD2    C5 6792   2.130   2.071  16.380
  456MPD2     H 6793   2.406   2.079  16.654
  456MPD2    H1 6794   1.997   2.152  16.516
  456MPD2    H2 6795   2.277   2.016  16.249
  456MPD2    H3 6796   2.055   2.076  16.301
  456MPD2     N 6797   2.174   2.191  16.726
  456MPD2    H5 6798   2.251   2.186  16.792
  456MPD2    N1 6799   2.487   2.012  16.411
  456MPD2    H7 6800   2.502   1.996  16.312
  457TMC3    C1 6801   2.081   2.341  16.882
  457TMC3    C2 6802   2.042   2.475  16.867
  457TMC3    C3 6803   2.115   2.570  16.940
  457TMC3    C4 6804   2.181   2.297  16.966
  457TMC3    C5 6805   2.233   2.392  17.050
  457TMC3    C6 6806   2.206   2.527  17.036
  457TMC3     C 6807   2.055   2.256  16.763
  457TMC3     O 6808   1.949   2.272  16.700
  457TMC3     H 6809   1.966   2.500  16.794
  457TMC3    H1 6810   2.187   2.190  16.983
  457TMC3    H2 6811   2.253   2.596  17.105
  457TMC3    C7 6812   2.332   2.343  17.149
  457TMC3    C8 6813   2.076   2.702  16.950
  457TMC3    O1 6814   2.371   2.229  17.142
  457TMC3    O2 6815   2.157   2.772  17.006
  458MPD2     C 6816   0.454   1.451  12.259
  458MPD2    C1 6817   0.405   1.388  12.372
  458MPD2    C2 6818   0.277   1.329  12.381
  458MPD2    C3 6819   0.199   1.325  12.270
  458MPD2    C4 6820   0.247   1.378  12.147
  458MPD2    C5 6821   0.370   1.438  12.149
  458MPD2     H 6822   0.234   1.274  12.464
  458MPD2    H1 6823   0.191   1.376  12.055
  458MPD2    H2 6824   0.554   1.492  12.247
  458MPD2    H3 6825   0.410   1.472  12.054
  458MPD2     N 6826   0.077   1.261  12.279
  458MPD2    H5 6827   0.060   1.220  12.371
  458MPD2    N1 6828   0.489   1.407  12.486
  458MPD2    H7 6829   0.577   1.456  12.471
  459TMC3    C1 6830   0.561   1.406  12.709
  459TMC3    C2 6831   0.661   1.497  12.679
  459TMC3    C3 6832   0.733   1.560  12.781
  459TMC3    C4 6833   0.530   1.381  12.842
  459TMC3    C5 6834   0.607   1.447  12.940
  459TMC3    C6 6835   0.707   1.537  12.913
  459TMC3     C 6836   0.457   1.369  12.613
  459TMC3     O 6837   0.363   1.305  12.655
  459TMC3     H 6838   0.692   1.525  12.578
  459TMC3    H1 6839   0.434   1.337  12.865
  459TMC3    H2 6840   0.770   1.579  12.991
  459TMC3    C7 6841   0.561   1.419  13.079
  459TMC3    C8 6842   0.829   1.670  12.760
  459TMC3    O1 6843   0.484   1.326  13.093
  459TMC3    O2 6844   0.921   1.683  12.838
  460MPD2     C 6845   4.251   3.849  10.909
  460MPD2    C1 6846   4.127   3.824  10.961
  460MPD2    C2 6847   4.016   3.879  10.899
  460MPD2    C3 6848   4.031   3.967  10.797
  460MPD2    C4 6849   4.158   3.998  10.759
  460MPD2    C5 6850   4.264   3.936  10.812
  460MPD2     H 6851   3.918   3.864  10.943
  460MPD2    H1 6852   4.186   4.077  10.691
  460MPD2    H2 6853   4.338   3.798  10.948
  460MPD2    H3 6854   4.360   3.969  10.774
  460MPD2     N 6855   3.920   4.027  10.739
  460MPD2    H5 6856   3.831   3.984  10.764
  460MPD2    N1 6857   4.126   3.752  11.083
  460MPD2    H7 6858   4.211   3.707  11.115
  461TMC3    C1 6859   3.785   4.143  10.593
  461TMC3    C2 6860   3.743   4.031  10.522
  461TMC3    C3 6861   3.630   4.042  10.437
  461TMC3    C4 6862   3.736   4.266  10.569
  461TMC3    C5 6863   3.626   4.278  10.483
  461TMC3    C6 6864   3.581   4.167  10.415
  461TMC3     C 6865   3.915   4.130  10.649
  461TMC3     O 6866   4.004   4.207  10.611
  461TMC3     H 6867   3.786   3.935  10.546
  461TMC3    H1 6868   3.781   4.350  10.621
  461TMC3    H2 6869   3.489   4.180  10.361
  461TMC3    C7 6870   3.599   4.408  10.424
  461TMC3    C8 6871   3.658   3.957  10.322
  461TMC3    O1 6872   3.518   4.411  10.337
  461TMC3    O2 6873   3.771   3.911  10.300
  462TMC3    C1 6874   4.099   0.376  18.036
  462TMC3    C2 6875   4.183   0.318  17.947
  462TMC3    C3 6876   4.202   0.181  17.958
  462TMC3    C4 6877   4.027   0.304  18.126
  462TMC3    C5 6878   4.055   0.169  18.136
  462TMC3    C6 6879   4.146   0.104  18.056
  462TMC3     C 6880   4.081   0.521  18.045
  462TMC3     O 6881   3.978   0.563  18.100
  462TMC3     H 6882   4.214   0.375  17.860
  462TMC3    H1 6883   3.945   0.353  18.178
  462TMC3    H2 6884   4.152   4.801  18.061
  462TMC3    C7 6885   3.948   0.080  18.186
  462TMC3    C8 6886   4.211   0.121  17.823
  462TMC3    O1 6887   3.990   4.773  18.225
  462TMC3    O2 6888   4.156   0.176  17.732
  463MPD2     C 6889   0.251   3.368  19.857
  463MPD2    C1 6890   0.222   3.409  19.726
  463MPD2    C2 6891   0.257   3.540  19.705
  463MPD2    C3 6892   0.304   3.632  19.791
  463MPD2    C4 6893   0.341   3.592  19.919
  463MPD2    C5 6894   0.312   3.456  19.951
  463MPD2     H 6895   0.239   3.577  19.605
  463MPD2    H1 6896   0.388   3.643  20.002
  463MPD2    H2 6897   0.239   3.263  19.884
  463MPD2    H3 6898   0.340   3.421  20.049
  463MPD2     N 6899   0.323   3.769  19.750
  463MPD2    H5 6900   0.341   3.840  19.820
  463MPD2    N1 6901   0.180   3.332  19.609
  463MPD2    H7 6902   0.167   3.390  19.527
  464TMC3    C1 6903   0.069   3.165  19.472
  464TMC3    C2 6904   0.066   3.258  19.370
  464TMC3    C3 6905   0.003   3.200  19.255
  464TMC3    C4 6906   0.042   3.032  19.446
  464TMC3    C5 6907   4.788   2.986  19.328
  464TMC3    C6 6908   4.765   3.071  19.230
  464TMC3     C 6909   0.131   3.207  19.599
  464TMC3     O 6910   0.141   3.119  19.685
  464TMC3     H 6911   0.070   3.365  19.383
  464TMC3    H1 6912   0.074   2.951  19.510
  464TMC3    H2 6913   4.733   3.042  19.130
  464TMC3    C7 6914   0.010   2.858  19.274
  464TMC3    C8 6915   4.801   3.278  19.135
  464TMC3    O1 6916   0.131   2.834  19.250
  464TMC3    O2 6917   4.694   3.302  19.084
  465MPD2     C 6918   1.837   2.524  17.389
  465MPD2    C1 6919   1.774   2.397  17.390
  465MPD2    C2 6920   1.723   2.349  17.269
  465MPD2    C3 6921   1.738   2.426  17.153
  465MPD2    C4 6922   1.794   2.551  17.157
  465MPD2    C5 6923   1.844   2.598  17.274
  465MPD2     H 6924   1.680   2.250  17.262
  465MPD2    H1 6925   1.809   2.608  17.066
  465MPD2    H2 6926   1.875   2.565  17.483
  465MPD2    H3 6927   1.870   2.703  17.281
  465MPD2     N 6928   1.688   2.363  17.031
  465MPD2    H5 6929   1.639   2.274  17.038
  465MPD2    N1 6930   1.742   2.330  17.510
  465MPD2    H7 6931   1.676   2.254  17.502
  466TMC3    C1 6932   1.489   2.174  16.757
  466TMC3    C2 6933   1.448   2.243  16.643
  466TMC3    C3 6934   1.530   2.346  16.609
  466TMC3    C4 6935   1.589   2.224  16.845
  466TMC3    C5 6936   1.652   2.340  16.802
  466TMC3    C6 6937   1.627   2.404  16.682
  466TMC3     C 6938   1.380   2.122  16.828
  466TMC3     O 6939   1.405   2.122  16.948
  466TMC3     H 6940   1.350   2.232  16.599
  466TMC3    H1 6941   1.612   2.170  16.936
  466TMC3    H2 6942   1.688   2.490  16.654
  466TMC3    C7 6943   1.696   2.427  16.905
  466TMC3    C8 6944   1.470   2.426  16.508
  466TMC3    O1 6945   1.735   2.535  16.866
  466TMC3    O2 6946   1.491   2.394  16.393
  467TMC3    C1 6947   2.339   0.736  14.067
  467TMC3    C2 6948   2.280   0.732  13.944
  467TMC3    C3 6949   2.147   0.766  13.936
  467TMC3    C4 6950   2.270   0.746  14.183
  467TMC3    C5 6951   2.137   0.766  14.174
  467TMC3    C6 6952   2.075   0.783  14.053
  467TMC3     C 6953   2.484   0.737  14.083
  467TMC3     O 6954   2.534   0.766  14.192
  467TMC3     H 6955   2.335   0.733  13.851
  467TMC3    H1 6956   2.325   0.747  14.276
  467TMC3    H2 6957   1.979   0.831  14.046
  467TMC3    C7 6958   2.061   0.678  14.260
  467TMC3    C8 6959   2.114   0.853  13.827
  467TMC3    O1 6960   2.133   0.618  14.341
  467TMC3    O2 6961   2.118   0.971  13.860
  468MPD2     C 6962   0.924   4.328  11.165
  468MPD2    C1 6963   1.038   4.254  11.192
  468MPD2    C2 6964   1.048   4.124  11.162
  468MPD2    C3 6965   0.942   4.059  11.096
  468MPD2    C4 6966   0.827   4.129  11.071
  468MPD2    C5 6967   0.821   4.259  11.109
  468MPD2     H 6968   1.136   4.069  11.191
  468MPD2    H1 6969   0.741   4.079  11.029
  468MPD2    H2 6970   0.913   4.432  11.191
  468MPD2    H3 6971   0.726   4.309  11.094
  468MPD2     N 6972   0.953   3.929  11.043
  468MPD2    H5 6973   0.868   3.893  11.000
  468MPD2    N1 6974   1.153   4.322  11.243
  468MPD2    H7 6975   1.236   4.267  11.266
  469TMC3    C1 6976   1.312   4.485  11.289
  469TMC3    C2 6977   1.417   4.404  11.256
  469TMC3    C3 6978   1.539   4.431  11.308
  469TMC3    C4 6979   1.328   4.596  11.366
  469TMC3    C5 6980   1.451   4.612  11.420
  469TMC3    C6 6981   1.558   4.534  11.391
  469TMC3     C 6982   1.174   4.456  11.259
  469TMC3     O 6983   1.098   4.549  11.275
  469TMC3     H 6984   1.404   4.319  11.191
  469TMC3    H1 6985   1.245   4.663  11.386
  469TMC3    H2 6986   1.656   4.541  11.438
  469TMC3    C7 6987   1.462   4.718  11.523
  469TMC3    C8 6988   1.626   4.309  11.322
  469TMC3    O1 6989   1.379   0.001  11.513
  469TMC3    O2 6990   1.611   4.219  11.241
  470TMC3    C1 6991   3.454   4.587  18.573
  470TMC3    C2 6992   3.524   4.692  18.519
  470TMC3    C3 6993   3.638   4.734  18.579
  470TMC3    C4 6994   3.493   4.520  18.687
  470TMC3    C5 6995   3.604   4.576  18.749
  470TMC3    C6 6996   3.676   4.677  18.701
  470TMC3     C 6997   3.351   4.528  18.494
  470TMC3     O 6998   3.334   4.566  18.378
  470TMC3     H 6999   3.495   4.741  18.426
  470TMC3    H1 7000   3.450   4.427  18.721
  470TMC3    H2 7001   3.766   4.709  18.752
  470TMC3    C7 7002   3.653   4.513  18.876
  470TMC3    C8 7003   3.721   0.023  18.510
  470TMC3    O1 7004   3.771   4.530  18.901
  470TMC3    O2 7005   3.659   0.118  18.461
  471MPD2     C 7006   4.038   1.292  16.907
  471MPD2    C1 7007   3.988   1.167  16.920
  471MPD2    C2 7008   3.993   1.104  17.039
  471MPD2    C3 7009   4.045   1.161  17.156
  471MPD2    C4 7010   4.093   1.287  17.139
  471MPD2    C5 7011   4.087   1.353  17.015
  471MPD2     H 7012   3.955   1.003  17.035
  471MPD2    H1 7013   4.141   1.339  17.221
  471MPD2    H2 7014   4.045   1.334  16.807
  471MPD2    H3 7015   4.133   1.452  17.010
  471MPD2     N 7016   4.079   1.091  17.277
  471MPD2    H5 7017   4.119   1.149  17.350
  471MPD2    N1 7018   3.957   1.092  16.805
  471MPD2    H7 7019   3.931   0.996  16.825
  472TMC3    C1 7020   3.888   1.031  16.592
  472TMC3    C2 7021   3.816   1.072  16.486
  472TMC3    C3 7022   3.791   0.979  16.390
  472TMC3    C4 7023   3.943   0.908  16.610
  472TMC3    C5 7024   3.918   0.817  16.514
  472TMC3    C6 7025   3.832   0.849  16.416
  472TMC3     C 7026   3.920   1.145  16.683
  472TMC3     O 7027   3.899   1.258  16.649
  472TMC3     H 7028   3.761   1.165  16.487
  472TMC3    H1 7029   4.007   0.883  16.694
  472TMC3    H2 7030   3.827   0.786  16.328
  472TMC3    C7 7031   3.907   0.677  16.560
  472TMC3    C8 7032   3.656   0.977  16.349
  472TMC3    O1 7033   3.891   0.659  16.682
  472TMC3    O2 7034   3.636   1.052  16.256
  473MPD2     C 7035   3.792   2.952  14.294
  473MPD2    C1 7036   3.882   3.004  14.200
  473MPD2    C2 7037   3.942   3.122  14.242
  473MPD2    C3 7038   3.903   3.199  14.352
  473MPD2    C4 7039   3.811   3.155  14.440
  473MPD2    C5 7040   3.762   3.027  14.407
  473MPD2     H 7041   4.022   3.155  14.176
  473MPD2    H1 7042   3.767   3.210  14.522
  473MPD2    H2 7043   3.749   2.854  14.275
  473MPD2    H3 7044   3.680   2.986  14.466
  473MPD2     N 7045   3.956   3.330  14.376
  473MPD2    H5 7046   3.897   3.379  14.442
  473MPD2    N1 7047   3.933   2.931  14.084
  473MPD2    H7 7048   4.023   2.959  14.045
  474TMC3    C1 7049   4.096   3.507  14.388
  474TMC3    C2 7050   3.999   3.593  14.419
  474TMC3    C3 7051   4.038   3.721  14.451
  474TMC3    C4 7052   4.224   3.549  14.372
  474TMC3    C5 7053   4.264   3.678  14.397
  474TMC3    C6 7054   4.171   3.754  14.458
  474TMC3     C 7055   4.073   3.380  14.335
  474TMC3     O 7056   4.164   3.324  14.276
  474TMC3     H 7057   3.896   3.561  14.422
  474TMC3    H1 7058   4.303   3.481  14.343
  474TMC3    H2 7059   4.200   3.857  14.477
  474TMC3    C7 7060   4.402   3.697  14.427
  474TMC3    C8 7061   3.930   3.817  14.468
  474TMC3    O1 7062   4.482   3.657  14.345
  474TMC3    O2 7063   3.820   3.765  14.486
  475MPD2     C 7064   2.531   1.554  11.137
  475MPD2    C1 7065   2.561   1.654  11.045
  475MPD2    C2 7066   2.519   1.780  11.075
  475MPD2    C3 7067   2.444   1.811  11.190
  475MPD2    C4 7068   2.426   1.709  11.279
  475MPD2    C5 7069   2.465   1.583  11.248
  475MPD2     H 7070   2.532   1.856  10.998
  475MPD2    H1 7071   2.382   1.718  11.378
  475MPD2    H2 7072   2.563   1.452  11.122
  475MPD2    H3 7073   2.448   1.508  11.326
  475MPD2     N 7074   2.401   1.942  11.220
  475MPD2    H5 7075   2.420   2.020  11.157
  475MPD2    N1 7076   2.627   1.609  10.934
  475MPD2    H7 7077   2.619   1.511  10.909
  476TMC3    C1 7078   2.766   1.816  10.896
  476TMC3    C2 7079   2.734   1.923  10.821
  476TMC3    C3 7080   2.715   2.044  10.882
  476TMC3    C4 7081   2.791   1.830  11.031
  476TMC3    C5 7082   2.794   1.956  11.087
  476TMC3    C6 7083   2.751   2.060  11.014
  476TMC3     C 7084   2.707   1.693  10.850
  476TMC3     O 7085   2.746   1.660  10.736
  476TMC3     H 7086   2.720   1.916  10.714
  476TMC3    H1 7087   2.815   1.745  11.094
  476TMC3    H2 7088   2.758   2.161  11.055
  476TMC3    C7 7089   2.769   1.962  11.236
  476TMC3    C8 7090   2.576   2.086  10.877
  476TMC3    O1 7091   2.789   1.860  11.300
  476TMC3    O2 7092   2.527   2.122  10.985
  477MPD2     C 7093   0.057   3.292  11.975
  477MPD2    C1 7094   4.752   3.219  12.010
  477MPD2    C2 7095   4.774   3.097  12.067
  477MPD2    C3 7096   0.098   3.056  12.096
  477MPD2    C4 7097   0.204   3.138  12.064
  477MPD2    C5 7098   0.184   3.257  12.007
  477MPD2     H 7099   4.695   3.028  12.098
  477MPD2    H1 7100   0.304   3.100  12.086
  477MPD2    H2 7101   0.059   3.389  11.927
  477MPD2    H3 7102   0.266   3.316  11.968
  477MPD2     N 7103   0.112   2.934  12.157
  477MPD2    H5 7104   0.031   2.877  12.177
  477MPD2    N1 7105   4.628   3.278  11.985
  477MPD2    H7 7106   4.621   3.361  11.926
  478TMC3    C1 7107   4.387   3.297  11.977
  478TMC3    C2 7108   4.280   3.313  12.053
  478TMC3    C3 7109   4.162   3.353  11.986
  478TMC3    C4 7110   4.389   3.326  11.843
  478TMC3    C5 7111   4.267   3.350  11.782
  478TMC3    C6 7112   4.156   3.365  11.854
  478TMC3     C 7113   4.506   3.236  12.040
  478TMC3     O 7114   4.479   3.161  12.134
  478TMC3     H 7115   4.288   3.304  12.161
  478TMC3    H1 7116   4.471   3.286  11.785
  478TMC3    H2 7117   4.057   3.381  11.812
  478TMC3    C7 7118   4.261   3.318  11.642
  478TMC3    C8 7119   4.071   3.434  12.062
  478TMC3    O1 7120   4.354   3.254  11.592
  478TMC3    O2 7121   4.101   3.422  12.184
  479MPD2     C 7122   3.453   0.267  15.371
  479MPD2    C1 7123   3.410   0.231  15.498
  479MPD2    C2 7124   3.503   0.219  15.602
  479MPD2    C3 7125   3.633   0.257  15.586
  479MPD2    C4 7126   3.672   0.312  15.463
  479MPD2    C5 7127   3.586   0.301  15.358
  479MPD2     H 7128   3.457   0.183  15.692
  479MPD2    H1 7129   3.770   0.351  15.440
  479MPD2    H2 7130   3.391   0.280  15.283
  479MPD2    H3 7131   3.622   0.324  15.259
  479MPD2     N 7132   3.738   0.257  15.684
  479MPD2    H5 7133   3.830   0.269  15.645
  479MPD2    N1 7134   3.277   0.186  15.506
  479MPD2    H7 7135   3.229   0.181  15.417
  480TMC3    C1 7136   3.482   0.232  16.084
  480TMC3    C2 7137   3.401   0.332  16.037
  480TMC3    C3 7138   3.452   0.405  15.933
  480TMC3    C4 7139   3.575   0.178  15.998
  480TMC3    C5 7140   3.613   0.242  15.882
  480TMC3    C6 7141   3.557   0.364  15.862
  480TMC3     C 7142   3.426   0.120  16.162
  480TMC3     O 7143   3.508   0.034  16.195
  480TMC3     H 7144   3.321   0.381  16.092
  480TMC3    H1 7145   3.637   0.092  16.022
  480TMC3    H2 7146   3.606   0.438  15.799
  480TMC3    C7 7147   3.730   0.203  15.814
  480TMC3    C8 7148   3.358   0.499  15.875
  480TMC3    O1 7149   3.814   0.154  15.891
  480TMC3    O2 7150   3.254   0.516  15.935
  481MPD2     C 7151   0.160   0.105  14.040
  481MPD2    C1 7152   0.079   0.009  14.092
  481MPD2    C2 7153   0.118   4.757  14.211
  481MPD2    C3 7154   0.241   4.782  14.275
  481MPD2    C4 7155   0.323   0.073  14.215
  481MPD2    C5 7156   0.281   0.135  14.102
  481MPD2     H 7157   0.061   4.670  14.243
  481MPD2    H1 7158   0.425   0.094  14.246
  481MPD2    H2 7159   0.137   0.154  13.946
  481MPD2    H3 7160   0.362   0.195  14.061
  481MPD2     N 7161   0.284   4.719  14.396
  481MPD2    H5 7162   0.371   4.747  14.441
  481MPD2    N1 7163   4.762   4.795  14.022
  481MPD2    H7 7164   4.750   0.050  13.940
  482TMC3    C1 7165   4.563   4.692  13.954
  482TMC3    C2 7166   4.513   4.567  13.928
  482TMC3    C3 7167   4.389   4.550  13.879
  482TMC3    C4 7168   4.500   0.000  13.915
  482TMC3    C5 7169   4.372   4.789  13.866
  482TMC3    C6 7170   4.318   4.663  13.845
  482TMC3     C 7171   4.669   4.703  14.055
  482TMC3     O 7172   4.687   4.599  14.118
  482TMC3     H 7173   4.576   4.481  13.948
  482TMC3    H1 7174   4.539   0.097  13.944
  482TMC3    H2 7175   4.228   4.654  13.785
  482TMC3    C7 7176   4.313   0.094  13.787
  482TMC3    C8 7177   4.360   4.426  13.805
  482TMC3    O1 7178   4.201   0.087  13.743
  482TMC3    O2 7179   4.451   4.343  13.816
  483TMC3    C1 7180   2.815   3.474  18.635
  483TMC3    C2 7181   2.883   3.593  18.642
  483TMC3    C3 7182   2.986   3.606  18.731
  483TMC3    C4 7183   2.866   3.360  18.690
  483TMC3    C5 7184   2.970   3.375  18.776
  483TMC3    C6 7185   3.030   3.496  18.799
  483TMC3     C 7186   2.725   3.457  18.529
  483TMC3     O 7187   2.667   3.548  18.477
  483TMC3     H 7188   2.837   3.680  18.597
  483TMC3    H1 7189   2.818   3.263  18.686
  483TMC3    H2 7190   3.123   3.502  18.855
  483TMC3    C7 7191   3.005   3.264  18.866
  483TMC3    C8 7192   3.071   3.720  18.706
  483TMC3    O1 7193   3.108   3.265  18.928
  483TMC3    O2 7194   3.064   3.752  18.585
  484MPD2     C 7195   0.832   1.890  12.455
  484MPD2    C1 7196   0.871   1.845  12.578
  484MPD2    C2 7197   0.996   1.887  12.630
  484MPD2    C3 7198   1.074   1.979  12.565
  484MPD2    C4 7199   1.036   2.031  12.444
  484MPD2    C5 7200   0.911   1.992  12.398
  484MPD2     H 7201   1.029   1.852  12.727
  484MPD2    H1 7202   1.087   2.111  12.390
  484MPD2    H2 7203   0.743   1.856  12.405
  484MPD2    H3 7204   0.873   2.023  12.302
  484MPD2     N 7205   1.195   2.022  12.619
  484MPD2    H5 7206   1.265   2.063  12.558
  484MPD2    N1 7207   0.803   1.736  12.638
  484MPD2    H7 7208   0.713   1.710  12.597
  485TMC3    C1 7209   1.359   2.073  12.785
  485TMC3    C2 7210   1.419   2.026  12.903
  485TMC3    C3 7211   1.550   2.054  12.921
  485TMC3    C4 7212   1.426   2.146  12.695
  485TMC3    C5 7213   1.557   2.174  12.721
  485TMC3    C6 7214   1.614   2.139  12.834
  485TMC3     C 7215   1.226   2.025  12.755
  485TMC3     O 7216   1.165   1.990  12.854
  485TMC3     H 7217   1.373   1.961  12.976
  485TMC3    H1 7218   1.382   2.186  12.604
  485TMC3    H2 7219   1.714   2.165  12.867
  485TMC3    C7 7220   1.659   2.181  12.609
  485TMC3    C8 7221   1.641   1.951  12.979
  485TMC3    O1 7222   1.773   2.188  12.651
  485TMC3    O2 7223   1.759   1.979  12.959
  486MPD2     C 7224   3.426   0.751  13.318
  486MPD2    C1 7225   3.326   0.707  13.234
  486MPD2    C2 7226   3.252   0.795  13.157
  486MPD2    C3 7227   3.262   0.932  13.179
  486MPD2    C4 7228   3.351   0.972  13.262
  486MPD2    C5 7229   3.432   0.887  13.330
  486MPD2     H 7230   3.185   0.754  13.082
  486MPD2    H1 7231   3.385   1.072  13.284
  486MPD2    H2 7232   3.485   0.691  13.386
  486MPD2    H3 7233   3.499   0.927  13.404
  486MPD2     N 7234   3.190   1.032  13.097
  486MPD2    H5 7235   3.123   0.999  13.029
  486MPD2    N1 7236   3.318   0.566  13.235
  486MPD2    H7 7237   3.367   0.526  13.314
  487TMC3    C1 7238   3.219   0.352  13.219
  487TMC3    C2 7239   3.161   0.255  13.138
  487TMC3    C3 7240   3.168   0.127  13.187
  487TMC3    C4 7241   3.261   0.333  13.350
  487TMC3    C5 7242   3.256   0.202  13.388
  487TMC3    C6 7243   3.233   0.096  13.304
  487TMC3     C 7244   3.239   0.490  13.157
  487TMC3     O 7245   3.200   0.509  13.043
  487TMC3     H 7246   3.132   0.276  13.036
  487TMC3    H1 7247   3.279   0.411  13.423
  487TMC3    H2 7248   3.250   4.798  13.334
  487TMC3    C7 7249   3.208   0.190  13.521
  487TMC3    C8 7250   3.046   0.061  13.190
  487TMC3    O1 7251   3.265   0.256  13.606
  487TMC3    O2 7252   3.033   4.778  13.268
  488MPD2     C 7253   3.276   2.196  16.663
  488MPD2    C1 7254   3.282   2.334  16.641
  488MPD2    C2 7255   3.238   2.414  16.746
  488MPD2    C3 7256   3.192   2.361  16.866
  488MPD2    C4 7257   3.189   2.224  16.882
  488MPD2    C5 7258   3.240   2.145  16.782
  488MPD2     H 7259   3.233   2.521  16.729
  488MPD2    H1 7260   3.151   2.177  16.971
  488MPD2    H2 7261   3.278   2.134  16.574
  488MPD2    H3 7262   3.221   2.039  16.797
  488MPD2     N 7263   3.136   2.441  16.965
  488MPD2    H5 7264   3.134   2.541  16.950
  488MPD2    N1 7265   3.332   2.387  16.523
  488MPD2    H7 7266   3.300   2.483  16.509
  489TMC3    C1 7267   3.050   2.523  17.175
  489TMC3    C2 7268   3.003   2.642  17.109
  489TMC3    C3 7269   2.997   2.752  17.184
  489TMC3    C4 7270   3.060   2.523  17.309
  489TMC3    C5 7271   3.057   2.644  17.375
  489TMC3    C6 7272   3.026   2.762  17.315
  489TMC3     C 7273   3.094   2.403  17.098
  489TMC3     O 7274   3.112   2.295  17.150
  489TMC3     H 7275   2.977   2.644  17.003
  489TMC3    H1 7276   3.094   2.427  17.347
  489TMC3    H2 7277   3.027   2.859  17.363
  489TMC3    C7 7278   3.115   2.660  17.502
  489TMC3    C8 7279   3.022   2.871  17.106
  489TMC3    O1 7280   3.121   2.777  17.540
  489TMC3    O2 7281   3.083   2.859  17.004
  490MPD2     C 7282   4.143   1.766  17.569
  490MPD2    C1 7283   4.136   1.700  17.687
  490MPD2    C2 7284   4.197   1.753  17.798
  490MPD2    C3 7285   4.268   1.872  17.786
  490MPD2    C4 7286   4.276   1.931  17.664
  490MPD2    C5 7287   4.218   1.881  17.552
  490MPD2     H 7288   4.190   1.698  17.892
  490MPD2    H1 7289   4.336   2.020  17.650
  490MPD2    H2 7290   4.101   1.720  17.480
  490MPD2    H3 7291   4.226   1.929  17.455
  490MPD2     N 7292   4.339   1.939  17.884
  490MPD2    H5 7293   4.391   2.024  17.863
  490MPD2    N1 7294   4.071   1.574  17.706
  490MPD2    H7 7295   4.049   1.536  17.798
  491TMC3    C1 7296   3.956   1.367  17.634
  491TMC3    C2 7297   3.971   1.306  17.760
  491TMC3    C3 7298   3.900   1.190  17.783
  491TMC3    C4 7299   3.895   1.294  17.526
  491TMC3    C5 7300   3.834   1.175  17.555
  491TMC3    C6 7301   3.836   1.120  17.683
  491TMC3     C 7302   4.034   1.493  17.602
  491TMC3     O 7303   4.056   1.511  17.482
  491TMC3     H 7304   4.029   1.348  17.841
  491TMC3    H1 7305   3.898   1.341  17.428
  491TMC3    H2 7306   3.766   1.039  17.698
  491TMC3    C7 7307   3.714   1.141  17.478
  491TMC3    C8 7308   3.912   1.143  17.917
  491TMC3    O1 7309   3.704   1.028  17.434
  491TMC3    O2 7310   3.953   1.225  17.997
  492MPD2     C 7311   4.426   1.953  11.654
  492MPD2    C1 7312   4.354   1.862  11.579
  492MPD2    C2 7313   4.278   1.768  11.639
  492MPD2    C3 7314   4.273   1.759  11.779
  492MPD2    C4 7315   4.338   1.852  11.856
  492MPD2    C5 7316   4.412   1.951  11.796
  492MPD2     H 7317   4.219   1.703  11.575
  492MPD2    H1 7318   4.323   1.851  11.964
  492MPD2    H2 7319   4.480   2.032  11.602
  492MPD2    H3 7320   4.464   2.025  11.855
  492MPD2     N 7321   4.209   1.654  11.849
  492MPD2    H5 7322   4.211   1.650  11.950
  492MPD2    N1 7323   4.355   1.897  11.440
  492MPD2    H7 7324   4.410   1.980  11.420
  493TMC3    C1 7325   4.303   1.899  11.212
  493TMC3    C2 7326   4.327   2.038  11.205
  493TMC3    C3 7327   4.285   2.100  11.088
  493TMC3    C4 7328   4.248   1.826  11.109
  493TMC3    C5 7329   4.202   1.894  10.998
  493TMC3    C6 7330   4.217   2.030  10.990
  493TMC3     C 7331   4.300   1.823  11.340
  493TMC3     O 7332   4.229   1.723  11.342
  493TMC3     H 7333   4.347   2.105  11.287
  493TMC3    H1 7334   4.268   1.720  11.111
  493TMC3    H2 7335   4.187   2.084  10.901
  493TMC3    C7 7336   4.069   1.841  10.960
  493TMC3    C8 7337   4.259   2.241  11.089
  493TMC3    O1 7338   4.031   1.851  10.843
  493TMC3    O2 7339   4.244   2.300  11.195
  494TMC3    C1 7340   4.407   3.404  18.290
  494TMC3    C2 7341   4.483   3.316  18.360
  494TMC3    C3 7342   4.603   3.273  18.316
  494TMC3    C4 7343   4.455   3.451  18.173
  494TMC3    C5 7344   4.585   3.413  18.136
  494TMC3    C6 7345   4.657   3.326  18.205
  494TMC3     C 7346   4.318   3.489  18.371
  494TMC3     O 7347   4.321   3.473  18.492
  494TMC3     H 7348   4.460   3.296  18.465
  494TMC3    H1 7349   4.386   3.502  18.107
  494TMC3    H2 7350   4.762   3.312  18.182
  494TMC3    C7 7351   4.643   3.457  18.011
  494TMC3    C8 7352   4.694   3.207  18.410
  494TMC3    O1 7353   4.722   3.384  17.951
  494TMC3    O2 7354   0.011   3.221  18.391
  495TMC3    C1 7355   3.581   0.527  14.907
  495TMC3    C2 7356   3.494   0.577  14.816
  495TMC3    C3 7357   3.378   0.641  14.870
  495TMC3    C4 7358   3.574   0.557  15.038
  495TMC3    C5 7359   3.476   0.643  15.085
  495TMC3    C6 7360   3.374   0.685  14.997
  495TMC3     C 7361   3.622   0.391  14.891
  495TMC3     O 7362   3.606   0.319  14.989
  495TMC3     H 7363   3.479   0.520  14.726
  495TMC3    H1 7364   3.657   0.524  15.100
  495TMC3    H2 7365   3.291   0.747  15.027
  495TMC3    C7 7366   3.453   0.635  15.224
  495TMC3    C8 7367   3.254   0.653  14.800
  495TMC3    O1 7368   3.556   0.610  15.286
  495TMC3    O2 7369   3.158   0.714  14.850
  496MPD2     C 7370   0.443   0.892  15.740
  496MPD2    C1 7371   0.445   0.769  15.680
  496MPD2    C2 7372   0.361   0.670  15.713
  496MPD2    C3 7373   0.258   0.703  15.804
  496MPD2    C4 7374   0.249   0.820  15.865
  496MPD2    C5 7375   0.339   0.916  15.832
  496MPD2     H 7376   0.360   0.573  15.665
  496MPD2    H1 7377   0.176   0.836  15.943
  496MPD2    H2 7378   0.526   0.957  15.718
  496MPD2    H3 7379   0.324   1.020  15.861
  496MPD2     N 7380   0.167   0.604  15.849
  496MPD2    H5 7381   0.094   0.633  15.912
  496MPD2    N1 7382   0.551   0.752  15.581
  496MPD2    H7 7383   0.627   0.818  15.592
  497TMC3    C1 7384   0.092   0.388  15.882
  497TMC3    C2 7385   0.082   0.275  15.805
  497TMC3    C3 7386   0.128   0.150  15.841
  497TMC3    C4 7387   0.148   0.372  16.005
  497TMC3    C5 7388   0.190   0.249  16.040
  497TMC3    C6 7389   0.182   0.133  15.964
  497TMC3     C 7390   0.167   0.475  15.799
  497TMC3     O 7391   0.202   0.431  15.691
  497TMC3     H 7392   0.042   0.287  15.705
  497TMC3    H1 7393   0.153   0.458  16.071
  497TMC3    H2 7394   0.211   0.034  15.996
  497TMC3    C7 7395   0.240   0.232  16.170
  497TMC3    C8 7396   0.182   0.069  15.737
  497TMC3    O1 7397   0.217   0.123  16.217
  497TMC3    O2 7398   0.192   4.751  15.751
  498MPD2     C 7399   1.298   1.777   9.892
  498MPD2    C1 7400   1.381   1.764  10.006
  498MPD2    C2 7401   1.366   1.650  10.076
  498MPD2    C3 7402   1.274   1.553  10.051
  498MPD2    C4 7403   1.193   1.571   9.937
  498MPD2    C5 7404   1.205   1.683   9.865
  498MPD2     H 7405   1.411   1.655  10.175
  498MPD2    H1 7406   1.127   1.492   9.903
  498MPD2    H2 7407   1.291   1.863   9.827
  498MPD2    H3 7408   1.144   1.695   9.776
  498MPD2     N 7409   1.239   1.453  10.152
  498MPD2    H5 7410   1.309   1.439  10.225
  498MPD2    N1 7411   1.475   1.865  10.043
  498MPD2    H7 7412   1.542   1.846  10.117
  499TMC3    C1 7413   1.602   2.058  10.035
  499TMC3    C2 7414   1.704   1.995  10.105
  499TMC3    C3 7415   1.812   2.075  10.137
  499TMC3    C4 7416   1.603   2.188   9.993
  499TMC3    C5 7417   1.713   2.267  10.030
  499TMC3    C6 7418   1.809   2.209  10.096
  499TMC3     C 7419   1.482   1.988   9.986
  499TMC3     O 7420   1.393   2.048   9.928
  499TMC3     H 7421   1.697   1.890  10.132
  499TMC3    H1 7422   1.527   2.224   9.923
  499TMC3    H2 7423   1.896   2.270  10.116
  499TMC3    C7 7424   1.717   2.418  10.022
  499TMC3    C8 7425   1.926   2.013  10.180
  499TMC3    O1 7426   1.827   2.475  10.032
  499TMC3    O2 7427   1.990   2.064  10.271
  500MPD2     C 7428   3.015   2.759  11.067
  500MPD2    C1 7429   3.039   2.793  10.939
  500MPD2    C2 7430   2.939   2.788  10.847
  500MPD2    C3 7431   2.806   2.773  10.879
  500MPD2    C4 7432   2.776   2.759  11.011
  500MPD2    C5 7433   2.881   2.744  11.106
  500MPD2     H 7434   2.972   2.796  10.744
  500MPD2    H1 7435   2.671   2.754  11.036
  500MPD2    H2 7436   3.095   2.744  11.138
  500MPD2    H3 7437   2.866   2.712  11.209
  500MPD2     N 7438   2.699   2.765  10.783
  500MPD2    H5 7439   2.605   2.781  10.817
  500MPD2    N1 7440   3.165   2.827  10.885
  500MPD2    H7 7441   3.171   2.848  10.786
  501TMC3    C1 7442   3.397   2.890  10.896
  501TMC3    C2 7443   3.400   2.930  10.765
  501TMC3    C3 7444   3.528   2.959  10.720
  501TMC3    C4 7445   3.506   2.903  10.977
  501TMC3    C5 7446   3.626   2.953  10.927
  501TMC3    C6 7447   3.646   2.976  10.792
  501TMC3     C 7448   3.265   2.863  10.961
  501TMC3     O 7449   3.270   2.874  11.084
  501TMC3     H 7450   3.313   2.915  10.703
  501TMC3    H1 7451   3.503   2.857  11.076
  501TMC3    H2 7452   3.742   2.995  10.747
  501TMC3    C7 7453   3.741   2.953  11.018
  501TMC3    C8 7454   3.542   2.954  10.575
  501TMC3    O1 7455   3.849   2.918  10.968
  501TMC3    O2 7456   3.470   2.869  10.522
  502TMC3    C1 7457   2.738   1.270  15.234
  502TMC3    C2 7458   2.712   1.391  15.172
  502TMC3    C3 7459   2.601   1.458  15.212
  502TMC3    C4 7460   2.649   1.209  15.318
  502TMC3    C5 7461   2.543   1.289  15.356
  502TMC3    C6 7462   2.507   1.404  15.296
  502TMC3     C 7463   2.878   1.269  15.279
  502TMC3     O 7464   2.974   1.252  15.200
  502TMC3     H 7465   2.788   1.431  15.106
  502TMC3    H1 7466   2.680   1.121  15.373
  502TMC3    H2 7467   2.414   1.454  15.323
  502TMC3    C7 7468   2.475   1.247  15.482
  502TMC3    C8 7469   2.633   1.599  15.234
  502TMC3    O1 7470   2.552   1.180  15.553
  502TMC3    O2 7471   2.708   1.650  15.153
  503MPD2     C 7472   0.425   2.267  17.150
  503MPD2    C1 7473   0.427   2.311  17.284
  503MPD2    C2 7474   0.445   2.216  17.388
  503MPD2    C3 7475   0.468   2.083  17.364
  503MPD2    C4 7476   0.460   2.042  17.233
  503MPD2    C5 7477   0.452   2.134  17.132
  503MPD2     H 7478   0.434   2.251  17.490
  503MPD2    H1 7479   0.467   1.940  17.196
  503MPD2    H2 7480   0.415   2.326  17.059
  503MPD2    H3 7481   0.444   2.087  17.034
  503MPD2     N 7482   0.495   1.996  17.474
  503MPD2    H5 7483   0.521   2.035  17.564
  503MPD2    N1 7484   0.403   2.445  17.316
  503MPD2    H7 7485   0.397   2.469  17.415
  504TMC3    C1 7486   0.603   1.810  17.557
  504TMC3    C2 7487   0.557   1.815  17.685
  504TMC3    C3 7488   0.642   1.764  17.780
  504TMC3    C4 7489   0.722   1.747  17.521
  504TMC3    C5 7490   0.805   1.715  17.620
  504TMC3    C6 7491   0.764   1.718  17.751
  504TMC3     C 7492   0.527   1.864  17.455
  504TMC3     O 7493   0.531   1.797  17.347
  504TMC3     H 7494   0.466   1.866  17.715
  504TMC3    H1 7495   0.746   1.741  17.415
  504TMC3    H2 7496   0.835   1.677  17.822
  504TMC3    C7 7497   0.924   1.652  17.579
  504TMC3    C8 7498   0.576   1.727  17.897
  504TMC3    O1 7499   0.963   1.704  17.476
  504TMC3    O2 7500   0.462   1.691  17.886
  505MPD2     C 7501   0.682   0.655  11.547
  505MPD2    C1 7502   0.736   0.678  11.426
  505MPD2    C2 7503   0.824   0.791  11.412
  505MPD2    C3 7504   0.871   0.854  11.528
  505MPD2    C4 7505   0.808   0.830  11.646
  505MPD2    C5 7506   0.711   0.733  11.653
  505MPD2     H 7507   0.870   0.820  11.318
  505MPD2    H1 7508   0.828   0.880  11.740
  505MPD2    H2 7509   0.615   0.571  11.554
  505MPD2    H3 7510   0.672   0.711  11.751
  505MPD2     N 7511   0.982   0.950  11.529
  505MPD2    H5 7512   1.016   0.979  11.620
  505MPD2    N1 7513   0.703   0.594  11.313
  505MPD2    H7 7514   0.662   0.504  11.334
  506TMC3    C1 7515   0.776   0.485  11.130
  506TMC3    C2 7516   0.811   0.486  10.998
  506TMC3    C3 7517   0.897   0.388  10.948
  506TMC3    C4 7518   0.844   0.396  11.214
  506TMC3    C5 7519   0.928   0.300  11.160
  506TMC3    C6 7520   0.953   0.296  11.028
  506TMC3     C 7521   0.750   0.613  11.189
  506TMC3     O 7522   0.799   0.711  11.137
  506TMC3     H 7523   0.776   0.569  10.937
  506TMC3    H1 7524   0.845   0.399  11.322
  506TMC3    H2 7525   1.031   0.228  10.995
  506TMC3    C7 7526   1.031   0.263  11.257
  506TMC3    C8 7527   0.927   0.375  10.803
  506TMC3    O1 7528   1.016   0.170  11.331
  506TMC3    O2 7529   0.969   0.269  10.760
  507TMC3    C1 7530   1.402   1.765  15.147
  507TMC3    C2 7531   1.370   1.688  15.036
  507TMC3    C3 7532   1.399   1.731  14.911
  507TMC3    C4 7533   1.465   1.881  15.126
  507TMC3    C5 7534   1.511   1.915  15.004
  507TMC3    C6 7535   1.477   1.841  14.892
  507TMC3     C 7536   1.293   1.772  15.247
  507TMC3     O 7537   1.320   1.806  15.364
  507TMC3     H 7538   1.329   1.592  15.063
  507TMC3    H1 7539   1.477   1.944  15.214
  507TMC3    H2 7540   1.513   1.881  14.798
  507TMC3    C7 7541   1.509   2.060  14.976
  507TMC3    C8 7542   1.275   1.750  14.834
  507TMC3    O1 7543   1.464   2.084  14.866
  507TMC3    O2 7544   1.172   1.739  14.898
  508MPD2     C 7545   2.340   3.820  15.735
  508MPD2    C1 7546   2.347   3.927  15.820
  508MPD2    C2 7547   2.373   4.052  15.765
  508MPD2    C3 7548   2.379   4.072  15.634
  508MPD2    C4 7549   2.374   3.963  15.550
  508MPD2    C5 7550   2.357   3.840  15.601
  508MPD2     H 7551   2.376   4.144  15.823
  508MPD2    H1 7552   2.398   3.972  15.444
  508MPD2    H2 7553   2.315   3.722  15.773
  508MPD2    H3 7554   2.357   3.752  15.538
  508MPD2     N 7555   2.392   4.207  15.583
  508MPD2    H5 7556   2.399   4.281  15.652
  508MPD2    N1 7557   2.323   3.919  15.958
  508MPD2    H7 7558   2.315   3.826  15.998
  509TMC3    C1 7559   2.254   4.575  15.471
  509TMC3    C2 7560   2.362   4.638  15.533
  509TMC3    C3 7561   2.475   4.566  15.541
  509TMC3    C4 7562   2.259   4.444  15.419
  509TMC3    C5 7563   2.376   4.378  15.433
  509TMC3    C6 7564   2.485   4.435  15.496
  509TMC3     C 7565   2.121   4.635  15.493
  509TMC3     O 7566   2.024   4.578  15.457
  509TMC3     H 7567   2.356   4.734  15.583
  509TMC3    H1 7568   2.171   4.396  15.378
  509TMC3    H2 7569   2.576   4.378  15.506
  509TMC3    C7 7570   2.352   4.239  15.457
  509TMC3    C8 7571   2.581   4.604  15.632
  509TMC3    O1 7572   2.297   4.165  15.375
  509TMC3    O2 7573   2.655   4.522  15.685
  510MPD2     C 7574   0.007   0.959  14.620
  510MPD2    C1 7575   0.065   0.939  14.745
  510MPD2    C2 7576   0.204   0.943  14.756
  510MPD2    C3 7577   0.280   0.980  14.647
  510MPD2    C4 7578   0.216   1.010  14.529
  510MPD2    C5 7579   0.080   1.000  14.512
  510MPD2     H 7580   0.242   0.926  14.855
  510MPD2    H1 7581   0.264   1.032  14.434
  510MPD2    H2 7582   4.704   0.948  14.624
  510MPD2    H3 7583   0.032   1.025  14.418
  510MPD2     N 7584   0.422   0.980  14.659
  510MPD2    H5 7585   0.463   0.922  14.731
  510MPD2    N1 7586   4.786   0.917  14.855
  510MPD2    H7 7587   4.691   0.884  14.840
  511TMC3    C1 7588   4.701   0.837  15.051
  511TMC3    C2 7589   4.677   0.854  15.181
  511TMC3    C3 7590   4.566   0.791  15.235
  511TMC3    C4 7591   4.640   0.737  14.975
  511TMC3    C5 7592   4.537   0.668  15.036
  511TMC3    C6 7593   4.494   0.690  15.168
  511TMC3     C 7594   0.017   0.895  14.987
  511TMC3     O 7595   0.121   0.911  15.049
  511TMC3     H 7596   4.736   0.920  15.244
  511TMC3    H1 7597   4.686   0.706  14.881
  511TMC3    H2 7598   4.392   0.665  15.196
  511TMC3    C7 7599   4.466   0.566  14.951
  511TMC3    C8 7600   4.528   0.818  15.370
  511TMC3    O1 7601   4.488   0.587  14.832
  511TMC3    O2 7602   4.572   0.922  15.418
  512TMC3    C1 7603   3.623   0.589  13.774
  512TMC3    C2 7604   3.724   0.523  13.830
  512TMC3    C3 7605   3.772   0.405  13.781
  512TMC3    C4 7606   3.568   0.537  13.656
  512TMC3    C5 7607   3.619   0.421  13.597
  512TMC3    C6 7608   3.728   0.361  13.656
  512TMC3     C 7609   3.634   0.731  13.783
  512TMC3     O 7610   3.742   0.778  13.802
  512TMC3     H 7611   3.774   0.564  13.917
  512TMC3    H1 7612   3.494   0.586  13.594
  512TMC3    H2 7613   3.774   0.269  13.622
  512TMC3    C7 7614   3.569   0.383  13.469
  512TMC3    C8 7615   3.889   0.349  13.843
  512TMC3    O1 7616   3.521   0.468  13.397
  512TMC3    O2 7617   3.894   0.230  13.881
  513MPD2     C 7618   0.707   4.534  13.272
  513MPD2    C1 7619   0.841   4.514  13.261
  513MPD2    C2 7620   0.920   4.582  13.351
  513MPD2    C3 7621   0.867   4.688  13.434
  513MPD2    C4 7622   0.730   4.710  13.436
  513MPD2    C5 7623   0.652   4.623  13.364
  513MPD2     H 7624   1.027   4.571  13.364
  513MPD2    H1 7625   0.686   4.777  13.509
  513MPD2    H2 7626   0.638   4.485  13.204
  513MPD2    H3 7627   0.545   4.636  13.368
  513MPD2     N 7628   0.954   4.770  13.505
  513MPD2    H5 7629   1.051   4.753  13.483
  513MPD2    N1 7630   0.899   4.426  13.165
  513MPD2    H7 7631   0.836   4.365  13.113
  514TMC3    C1 7632   1.127   4.516  13.141
  514TMC3    C2 7633   1.093   4.638  13.093
  514TMC3    C3 7634   1.198   4.723  13.051
  514TMC3    C4 7635   1.263   4.472  13.139
  514TMC3    C5 7636   1.357   4.564  13.105
  514TMC3    C6 7637   1.324   4.693  13.070
  514TMC3     C 7638   1.033   4.405  13.132
  514TMC3     O 7639   1.081   4.300  13.088
  514TMC3     H 7640   0.991   4.665  13.068
  514TMC3    H1 7641   1.287   4.373  13.176
  514TMC3    H2 7642   1.405   4.764  13.059
  514TMC3    C7 7643   1.482   4.510  13.069
  514TMC3    C8 7644   1.166   0.056  13.037
  514TMC3    O1 7645   1.467   4.418  12.988
  514TMC3    O2 7646   1.070   0.102  13.097
  515MPD2     C 7647   3.765   1.943  15.156
  515MPD2    C1 7648   3.870   1.940  15.069
  515MPD2    C2 7649   3.973   2.028  15.084
  515MPD2    C3 7650   3.970   2.125  15.182
  515MPD2    C4 7651   3.865   2.116  15.272
  515MPD2    C5 7652   3.768   2.026  15.257
  515MPD2     H 7653   4.048   2.023  15.006
  515MPD2    H1 7654   3.854   2.193  15.347
  515MPD2    H2 7655   3.675   1.882  15.152
  515MPD2    H3 7656   3.681   2.036  15.320
  515MPD2     N 7657   4.059   2.237  15.192
  515MPD2    H5 7658   4.056   2.281  15.283
  515MPD2    N1 7659   3.870   1.851  14.962
  515MPD2    H7 7660   3.940   1.871  14.891
  516TMC3    C1 7661   3.819   1.661  14.831
  516TMC3    C2 7662   3.774   1.721  14.714
  516TMC3    C3 7663   3.713   1.636  14.623
  516TMC3    C4 7664   3.802   1.527  14.856
  516TMC3    C5 7665   3.741   1.447  14.764
  516TMC3    C6 7666   3.684   1.508  14.652
  516TMC3     C 7667   3.791   1.742  14.953
  516TMC3     O 7668   3.714   1.698  15.035
  516TMC3     H 7669   3.781   1.829  14.720
  516TMC3    H1 7670   3.830   1.493  14.955
  516TMC3    H2 7671   3.650   1.439  14.576
  516TMC3    C7 7672   3.688   1.319  14.815
  516TMC3    C8 7673   3.629   1.699  14.528
  516TMC3    O1 7674   3.748   1.256  14.903
  516TMC3    O2 7675   3.520   1.655  14.505
  517MPD2     C 7676   3.279   3.647  17.719
  517MPD2    C1 7677   3.405   3.635  17.777
  517MPD2    C2 7678   3.451   3.735  17.862
  517MPD2    C3 7679   3.368   3.844  17.888
  517MPD2    C4 7680   3.245   3.857  17.825
  517MPD2    C5 7681   3.202   3.758  17.743
  517MPD2     H 7682   3.554   3.721  17.893
  517MPD2    H1 7683   3.190   3.950  17.835
  517MPD2    H2 7684   3.251   3.575  17.644
  517MPD2    H3 7685   3.113   3.774  17.683
  517MPD2     N 7686   3.410   3.946  17.985
  517MPD2    H5 7687   3.344   4.022  18.001
  517MPD2    N1 7688   3.484   3.515  17.761
  517MPD2    H7 7689   3.568   3.513  17.818
  518TMC3    C1 7690   3.566   3.312  17.669
  518TMC3    C2 7691   3.544   3.175  17.662
  518TMC3    C3 7692   3.659   3.096  17.649
  518TMC3    C4 7693   3.696   3.372  17.664
  518TMC3    C5 7694   3.803   3.288  17.650
  518TMC3    C6 7695   3.786   3.151  17.646
  518TMC3     C 7696   3.453   3.397  17.700
  518TMC3     O 7697   3.341   3.357  17.668
  518TMC3     H 7698   3.448   3.129  17.681
  518TMC3    H1 7699   3.716   3.477  17.648
  518TMC3    H2 7700   3.868   3.083  17.625
  518TMC3    C7 7701   3.933   3.344  17.676
  518TMC3    C8 7702   3.651   2.959  17.597
  518TMC3    O1 7703   3.926   3.462  17.708
  518TMC3    O2 7704   3.751   2.888  17.598
  519MPD2     C 7705   0.106   1.999  14.704
  519MPD2    C1 7706   0.120   2.000  14.566
  519MPD2    C2 7707   0.216   1.911  14.509
  519MPD2    C3 7708   0.301   1.835  14.592
  519MPD2    C4 7709   0.290   1.846  14.730
  519MPD2    C5 7710   0.189   1.926  14.780
  519MPD2     H 7711   0.213   1.897  14.401
  519MPD2    H1 7712   0.350   1.787  14.798
  519MPD2    H2 7713   0.042   2.078  14.742
  519MPD2    H3 7714   0.167   1.934  14.886
  519MPD2     N 7715   0.397   1.742  14.542
  519MPD2    H5 7716   0.457   1.696  14.610
  519MPD2    N1 7717   0.035   2.081  14.481
  519MPD2    H7 7718   4.759   2.122  14.526
  520TMC3    C1 7719   0.503   1.609  14.374
  520TMC3    C2 7720   0.483   1.574  14.239
  520TMC3    C3 7721   0.590   1.594  14.159
  520TMC3    C4 7722   0.622   1.658  14.425
  520TMC3    C5 7723   0.724   1.667  14.335
  520TMC3    C6 7724   0.716   1.629  14.203
  520TMC3     C 7725   0.395   1.693  14.414
  520TMC3     O 7726   0.317   1.716  14.322
  520TMC3     H 7727   0.384   1.549  14.202
  520TMC3    H1 7728   0.638   1.676  14.531
  520TMC3    H2 7729   0.798   1.636  14.133
  520TMC3    C7 7730   0.855   1.652  14.391
  520TMC3    C8 7731   0.560   1.615  14.018
  520TMC3    O1 7732   0.861   1.610  14.507
  520TMC3    O2 7733   0.654   1.646  13.950
  521MPD2     C 7734   1.254   0.106  17.384
  521MPD2    C1 7735   1.227   4.804  17.303
  521MPD2    C2 7736   1.329   4.763  17.222
  521MPD2    C3 7737   1.451   0.021  17.214
  521MPD2    C4 7738   1.475   0.135  17.286
  521MPD2    C5 7739   1.373   0.174  17.372
  521MPD2     H 7740   1.320   4.668  17.171
  521MPD2    H1 7741   1.573   0.181  17.294
  521MPD2    H2 7742   1.184   0.138  17.460
  521MPD2    H3 7743   1.402   0.251  17.443
  521MPD2     N 7744   1.553   4.759  17.148
  521MPD2    H5 7745   1.534   4.665  17.114
  521MPD2    N1 7746   1.105   4.740  17.318
  521MPD2    H7 7747   1.037   4.773  17.385
  522TMC3    C1 7748   1.730   4.759  17.002
  522TMC3    C2 7749   1.852   4.704  17.025
  522TMC3    C3 7750   1.882   4.588  16.960
  522TMC3    C4 7751   1.643   4.698  16.921
  522TMC3    C5 7752   1.680   4.585  16.849
  522TMC3    C6 7753   1.798   4.529  16.872
  522TMC3     C 7754   1.670   0.021  17.115
  522TMC3     O 7755   1.707   0.139  17.137
  522TMC3     H 7756   1.916   4.740  17.106
  522TMC3    H1 7757   1.545   4.741  16.906
  522TMC3    H2 7758   1.819   4.426  16.845
  522TMC3    C7 7759   1.572   4.495  16.810
  522TMC3    C8 7760   2.026   4.557  16.956
  522TMC3    O1 7761   1.596   4.377  16.841
  522TMC3    O2 7762   2.094   4.601  17.048
  523MPD2     C 7763   3.774   4.723  10.469
  523MPD2    C1 7764   3.689   4.634  10.412
  523MPD2    C2 7765   3.611   4.675  10.304
  523MPD2    C3 7766   3.604   0.007  10.264
  523MPD2    C4 7767   3.676   0.095  10.334
  523MPD2    C5 7768   3.763   0.051  10.429
  523MPD2     H 7769   3.550   4.612  10.240
  523MPD2    H1 7770   3.693   0.199  10.307
  523MPD2    H2 7771   3.845   4.697  10.546
  523MPD2    H3 7772   3.831   0.122  10.475
  523MPD2     N 7773   3.535   0.060  10.151
  523MPD2    H5 7774   3.531   0.160  10.136
  523MPD2    N1 7775   3.693   4.500  10.461
  523MPD2    H7 7776   3.757   4.486  10.539
  524TMC3    C1 7777   3.394   0.089   9.976
  524TMC3    C2 7778   3.371   0.051   9.850
  524TMC3    C3 7779   3.312   0.139   9.764
  524TMC3    C4 7780   3.379   0.222  10.019
  524TMC3    C5 7781   3.305   0.304   9.939
  524TMC3    C6 7782   3.278   0.266   9.812
  524TMC3     C 7783   3.461   4.798  10.062
  524TMC3     O 7784   3.468   4.680  10.034
  524TMC3     H 7785   3.394   4.754   9.821
  524TMC3    H1 7786   3.365   0.240  10.125
  524TMC3    H2 7787   3.256   0.342   9.737
  524TMC3    C7 7788   3.344   0.446   9.968
  524TMC3    C8 7789   3.235   0.077   9.663
  524TMC3    O1 7790   3.416   0.460  10.067
  524TMC3    O2 7791   3.253   4.763   9.647
  525MPD2     C 7792   1.565   1.294  14.969
  525MPD2    C1 7793   1.687   1.292  15.015
  525MPD2    C2 7794   1.777   1.392  14.975
  525MPD2    C3 7795   1.740   1.484  14.872
  525MPD2    C4 7796   1.610   1.476  14.835
  525MPD2    C5 7797   1.521   1.392  14.891
  525MPD2     H 7798   1.880   1.387  15.008
  525MPD2    H1 7799   1.573   1.542  14.758
  525MPD2    H2 7800   1.495   1.216  14.998
  525MPD2    H3 7801   1.425   1.378  14.841
  525MPD2     N 7802   1.811   1.596  14.836
  525MPD2    H5 7803   1.762   1.667  14.783
  525MPD2    N1 7804   1.732   1.197  15.108
  525MPD2    H7 7805   1.818   1.216  15.158
  526TMC3    C1 7806   1.726   1.024  15.267
  526TMC3    C2 7807   1.646   0.988  15.376
  526TMC3    C3 7808   1.707   0.953  15.493
  526TMC3    C4 7809   1.859   1.022  15.270
  526TMC3    C5 7810   1.914   0.991  15.391
  526TMC3    C6 7811   1.841   0.960  15.500
  526TMC3     C 7812   1.663   1.079  15.148
  526TMC3     O 7813   1.559   1.035  15.109
  526TMC3     H 7814   1.540   0.985  15.357
  526TMC3    H1 7815   1.915   1.032  15.178
  526TMC3    H2 7816   1.884   0.930  15.595
  526TMC3    C7 7817   2.061   0.981  15.401
  526TMC3    C8 7818   1.643   0.978  15.625
  526TMC3    O1 7819   2.104   0.958  15.518
  526TMC3    O2 7820   1.701   0.946  15.725
  527MPD2     C 7821   4.610   4.241  19.558
  527MPD2    C1 7822   4.577   4.281  19.436
  527MPD2    C2 7823   4.662   4.247  19.333
  527MPD2    C3 7824   4.764   4.153  19.358
  527MPD2    C4 7825   4.784   4.109  19.488
  527MPD2    C5 7826   4.723   4.179  19.591
  527MPD2     H 7827   4.648   4.278  19.230
  527MPD2    H1 7828   0.069   4.052  19.513
  527MPD2    H2 7829   4.569   4.283  19.650
  527MPD2    H3 7830   4.734   4.163  19.697
  527MPD2     N 7831   0.042   4.106  19.244
  527MPD2    H5 7832   0.032   4.155  19.156
  527MPD2    N1 7833   4.465   4.356  19.405
  527MPD2    H7 7834   4.460   4.375  19.305
  528TMC3    C1 7835   4.268   4.492  19.414
  528TMC3    C2 7836   4.162   4.539  19.483
  528TMC3    C3 7837   4.060   4.593  19.418
  528TMC3    C4 7838   4.279   4.505  19.278
  528TMC3    C5 7839   4.164   4.548  19.209
  528TMC3    C6 7840   4.054   4.597  19.282
  528TMC3     C 7841   4.370   4.412  19.488
  528TMC3     O 7842   4.352   4.392  19.606
  528TMC3     H 7843   4.153   4.538  19.591
  528TMC3    H1 7844   4.367   4.470  19.225
  528TMC3    H2 7845   3.961   4.624  19.233
  528TMC3    C7 7846   4.175   4.575  19.064
  528TMC3    C8 7847   3.961   4.661  19.504
  528TMC3    O1 7848   4.125   4.678  19.016
  528TMC3    O2 7849   3.898   4.597  19.589
  529MPD2     C 7850   1.937   2.758  18.920
  529MPD2    C1 7851   1.976   2.685  18.809
  529MPD2    C2 7852   1.937   2.729  18.684
  529MPD2    C3 7853   1.854   2.836  18.672
  529MPD2    C4 7854   1.803   2.897  18.788
  529MPD2    C5 7855   1.842   2.856  18.913
  529MPD2     H 7856   1.964   2.678  18.592
  529MPD2    H1 7857   1.742   2.986  18.784
  529MPD2    H2 7858   1.963   2.734  19.022
  529MPD2    H3 7859   1.819   2.907  19.006
  529MPD2     N 7860   1.820   2.891  18.546
  529MPD2    H5 7861   1.758   2.971  18.546
  529MPD2    N1 7862   2.067   2.575  18.818
  529MPD2    H7 7863   2.124   2.556  18.737
  530TMC3    C1 7864   2.171   2.391  18.925
  530TMC3    C2 7865   2.255   2.367  19.029
  530TMC3    C3 7866   2.350   2.269  19.014
  530TMC3    C4 7867   2.184   2.326  18.809
  530TMC3    C5 7868   2.285   2.237  18.795
  530TMC3    C6 7869   2.369   2.210  18.895
  530TMC3     C 7870   2.083   2.503  18.940
  530TMC3     O 7871   2.040   2.524  19.053
  530TMC3     H 7872   2.233   2.408  19.127
  530TMC3    H1 7873   2.107   2.329  18.733
  530TMC3    H2 7874   2.446   2.135  18.879
  530TMC3    C7 7875   2.246   2.112  18.755
  530TMC3    C8 7876   2.345   2.172  19.127
  530TMC3    O1 7877   2.331   2.041  18.706
  530TMC3    O2 7878   2.242   2.161  19.196
  531MPD2     C 7879   1.687   0.101  13.340
  531MPD2    C1 7880   1.573   0.032  13.360
  531MPD2    C2 7881   1.544   4.721  13.289
  531MPD2    C3 7882   1.626   4.690  13.185
  531MPD2    C4 7883   1.748   4.756  13.163
  531MPD2    C5 7884   1.772   0.057  13.249
  531MPD2     H 7885   1.458   4.662  13.320
  531MPD2    H1 7886   1.806   4.744  13.072
  531MPD2    H2 7887   1.709   0.194  13.390
  531MPD2    H3 7888   1.856   0.121  13.223
  531MPD2     N 7889   1.597   4.594  13.090
  531MPD2    H5 7890   1.676   4.589  13.026
  531MPD2    N1 7891   1.487   0.077  13.460
  531MPD2    H7 7892   1.516   0.143  13.532
  532TMC3    C1 7893   1.270   0.111  13.553
  532TMC3    C2 7894   1.137   0.126  13.513
  532TMC3    C3 7895   1.053   0.139  13.618
  532TMC3    C4 7896   1.315   0.107  13.679
  532TMC3    C5 7897   1.219   0.128  13.771
  532TMC3    C6 7898   1.088   0.140  13.748
  532TMC3     C 7899   1.351   0.046  13.449
  532TMC3     O 7900   1.288   4.785  13.368
  532TMC3     H 7901   1.106   0.130  13.409
  532TMC3    H1 7902   1.419   0.086  13.704
  532TMC3    H2 7903   1.024   0.166  13.831
  532TMC3    C7 7904   1.263   0.159  13.904
  532TMC3    C8 7905   0.926   0.073  13.585
  532TMC3    O1 7906   1.209   0.248  13.962
  532TMC3    O2 7907   0.816   0.100  13.634
  533TMC3    C1 7908   1.980   1.753  14.824
  533TMC3    C2 7909   2.104   1.789  14.854
  533TMC3    C3 7910   2.132   1.908  14.915
  533TMC3    C4 7911   1.885   1.848  14.857
  533TMC3    C5 7912   1.917   1.956  14.940
  533TMC3    C6 7913   2.040   1.994  14.966
  533TMC3     C 7914   1.946   1.622  14.862
  533TMC3     O 7915   2.028   1.550  14.912
  533TMC3     H 7916   2.179   1.712  14.843
  533TMC3    H1 7917   1.781   1.832  14.829
  533TMC3    H2 7918   2.069   2.084  15.019
  533TMC3    C7 7919   1.832   1.939  15.056
  533TMC3    C8 7920   2.274   1.950  14.930
  533TMC3    O1 7921   1.790   1.824  15.072
  533TMC3    O2 7922   2.294   2.060  14.985
  534MPD2     C 7923   0.022   2.583  19.186
  534MPD2    C1 7924   4.710   2.651  19.220
  534MPD2    C2 7925   4.587   2.590  19.204
  534MPD2    C3 7926   4.578   2.450  19.184
  534MPD2    C4 7927   4.692   2.379  19.171
  534MPD2    C5 7928   0.004   2.449  19.152
  534MPD2     H 7929   4.498   2.643  19.235
  534MPD2    H1 7930   4.694   2.272  19.155
  534MPD2    H2 7931   0.124   2.619  19.191
  534MPD2    H3 7932   0.095   2.391  19.142
  534MPD2     N 7933   4.451   2.383  19.161
  534MPD2    H5 7934   4.450   2.282  19.153
  534MPD2    N1 7935   4.702   2.780  19.264
  534MPD2    H7 7936   4.613   2.820  19.290
  535TMC3    C1 7937   4.227   2.345  19.136
  535TMC3    C2 7938   4.108   2.357  19.192
  535TMC3    C3 7939   4.000   2.338  19.114
  535TMC3    C4 7940   4.243   2.300  19.006
  535TMC3    C5 7941   4.131   2.286  18.935
  535TMC3    C6 7942   4.013   2.313  18.982
  535TMC3     C 7943   4.330   2.430  19.189
  535TMC3     O 7944   4.300   2.528  19.254
  535TMC3     H 7945   4.113   2.395  19.293
  535TMC3    H1 7946   4.336   2.303  18.950
  535TMC3    H2 7947   3.924   2.313  18.921
  535TMC3    C7 7948   4.153   2.282  18.792
  535TMC3    C8 7949   3.871   2.364  19.168
  535TMC3    O1 7950   4.241   2.210  18.744
  535TMC3    O2 7951   3.779   2.312  19.104
  536MPD2     C 7952   3.507   1.260  16.606
  536MPD2    C1 7953   3.398   1.176  16.589
  536MPD2    C2 7954   3.293   1.201  16.495
  536MPD2    C3 7955   3.314   1.320  16.422
  536MPD2    C4 7956   3.433   1.395  16.432
  536MPD2    C5 7957   3.524   1.370  16.525
  536MPD2     H 7958   3.199   1.148  16.483
  536MPD2    H1 7959   3.453   1.481  16.369
  536MPD2    H2 7960   3.580   1.234  16.681
  536MPD2    H3 7961   3.615   1.427  16.539
  536MPD2     N 7962   3.220   1.368  16.326
  536MPD2    H5 7963   3.243   1.455  16.280
  536MPD2    N1 7964   3.375   1.077  16.683
  536MPD2    H7 7965   3.446   1.069  16.756
  537TMC3    C1 7966   3.263   0.911  16.806
  537TMC3    C2 7967   3.270   0.978  16.927
  537TMC3    C3 7968   3.268   0.897  17.043
  537TMC3    C4 7969   3.219   0.783  16.795
  537TMC3    C5 7970   3.227   0.704  16.905
  537TMC3    C6 7971   3.250   0.759  17.027
  537TMC3     C 7972   3.280   0.982  16.679
  537TMC3     O 7973   3.190   0.958  16.600
  537TMC3     H 7974   3.274   1.086  16.927
  537TMC3    H1 7975   3.179   0.745  16.702
  537TMC3    H2 7976   3.286   0.701  17.112
  537TMC3    C7 7977   3.174   0.573  16.880
  537TMC3    C8 7978   3.315   0.962  17.166
  537TMC3    O1 7979   3.167   0.527  16.768
  537TMC3    O2 7980   3.377   0.889  17.237
  538TMC3    C1 7981   4.305   4.095  11.294
  538TMC3    C2 7982   4.413   4.028  11.243
  538TMC3    C3 7983   4.442   4.055  11.114
  538TMC3    C4 7984   4.222   4.166  11.219
  538TMC3    C5 7985   4.260   4.192  11.087
  538TMC3    C6 7986   4.372   4.142  11.029
  538TMC3     C 7987   4.275   4.091  11.434
  538TMC3     O 7988   4.165   4.127  11.462
  538TMC3     H 7989   4.456   3.939  11.289
  538TMC3    H1 7990   4.138   4.223  11.257
  538TMC3    H2 7991   4.386   4.159  10.923
  538TMC3    C7 7992   4.191   4.300  11.022
  538TMC3    C8 7993   4.550   3.985  11.054
  538TMC3    O1 7994   4.085   4.325  11.075
  538TMC3    O2 7995   4.569   3.867  11.084
  539MPD2     C 7996   3.921   3.652  12.206
  539MPD2    C1 7997   3.950   3.652  12.068
  539MPD2    C2 7998   3.926   3.760  11.988
  539MPD2    C3 7999   3.886   3.874  12.046
  539MPD2    C4 8000   3.863   3.883  12.184
  539MPD2    C5 8001   3.879   3.768  12.264
  539MPD2     H 8002   3.945   3.750  11.882
  539MPD2    H1 8003   3.822   3.975  12.226
  539MPD2    H2 8004   3.935   3.572  12.277
  539MPD2    H3 8005   3.864   3.778  12.371
  539MPD2     N 8006   3.882   3.998  11.966
  539MPD2    H5 8007   3.862   4.081  12.020
  539MPD2    N1 8008   4.009   3.541  12.005
  539MPD2    H7 8009   4.036   3.558  11.909
  540TMC3    C1 8010   3.923   4.157  11.793
  540TMC3    C2 8011   3.939   4.181  11.660
  540TMC3    C3 8012   3.924   4.312  11.617
  540TMC3    C4 8013   3.882   4.259  11.871
  540TMC3    C5 8014   3.845   4.384  11.817
  540TMC3    C6 8015   3.864   4.411  11.683
  540TMC3     C 8016   3.926   4.020  11.842
  540TMC3     O 8017   3.959   3.937  11.759
  540TMC3     H 8018   3.958   4.104  11.587
  540TMC3    H1 8019   3.876   4.255  11.979
  540TMC3    H2 8020   3.834   4.504  11.637
  540TMC3    C7 8021   3.756   4.468  11.892
  540TMC3    C8 8022   3.892   4.327  11.485
  540TMC3    O1 8023   3.664   4.406  11.949
  540TMC3    O2 8024   3.963   4.406  11.425
  541MPD2     C 8025   2.978   0.471  13.639
  541MPD2    C1 8026   2.843   0.446  13.635
  541MPD2    C2 8027   2.771   0.487  13.524
  541MPD2    C3 8028   2.838   0.554  13.423
  541MPD2    C4 8029   2.968   0.588  13.433
  541MPD2    C5 8030   3.042   0.542  13.541
  541MPD2     H 8031   2.666   0.471  13.507
  541MPD2    H1 8032   3.001   0.656  13.355
  541MPD2    H2 8033   3.031   0.433  13.726
  541MPD2    H3 8034   3.150   0.545  13.550
  541MPD2     N 8035   2.780   0.582  13.299
  541MPD2    H5 8036   2.820   0.662  13.252
  541MPD2    N1 8037   2.782   0.363  13.728
  541MPD2    H7 8038   2.841   0.291  13.767
  542TMC3    C1 8039   2.613   0.584  13.134
  542TMC3    C2 8040   2.553   0.507  13.040
  542TMC3    C3 8041   2.500   0.570  12.927
  542TMC3    C4 8042   2.610   0.720  13.135
  542TMC3    C5 8043   2.552   0.780  13.025
  542TMC3    C6 8044   2.506   0.704  12.917
  542TMC3     C 8045   2.664   0.524  13.255
  542TMC3     O 8046   2.611   0.418  13.295
  542TMC3     H 8047   2.554   0.398  13.048
  542TMC3    H1 8048   2.651   0.779  13.217
  542TMC3    H2 8049   2.459   0.753  12.832
  542TMC3    C7 8050   2.535   0.927  13.030
  542TMC3    C8 8051   2.553   0.503  12.805
  542TMC3    O1 8052   2.504   0.981  13.136
  542TMC3    O2 8053   2.642   0.566  12.746
  543TMC3    C1 8054   2.039   1.750  17.845
  543TMC3    C2 8055   2.079   1.626  17.889
  543TMC3    C3 8056   2.018   1.565  17.990
  543TMC3    C4 8057   1.948   1.831  17.910
  543TMC3    C5 8058   1.900   1.771  18.027
  543TMC3    C6 8059   1.931   1.641  18.058
  543TMC3     C 8060   2.074   1.775  17.711
  543TMC3     O 8061   2.105   1.680  17.642
  543TMC3     H 8062   2.162   1.574  17.843
  543TMC3    H1 8063   1.906   1.926  17.879
  543TMC3    H2 8064   1.891   1.591  18.145
  543TMC3    C7 8065   1.811   1.848  18.111
  543TMC3    C8 8066   2.000   1.424  17.972
  543TMC3    O1 8067   1.741   1.790  18.194
  543TMC3    O2 8068   2.071   1.369  17.891
  544MPD2     C 8069   1.740   0.987  18.057
  544MPD2    C1 8070   1.827   1.022  17.960
  544MPD2    C2 8071   1.892   1.145  17.957
  544MPD2    C3 8072   1.856   1.236  18.055
  544MPD2    C4 8073   1.763   1.207  18.157
  544MPD2    C5 8074   1.714   1.078  18.160
  544MPD2     H 8075   1.964   1.173  17.881
  544MPD2    H1 8076   1.735   1.279  18.233
  544MPD2    H2 8077   1.680   0.897  18.051
  544MPD2    H3 8078   1.637   1.054  18.232
  544MPD2     N 8079   1.901   1.374  18.053
  544MPD2    H5 8080   1.844   1.433  18.114
  544MPD2    N1 8081   1.845   0.925  17.865
  544MPD2    H7 8082   1.798   0.837  17.887
  545TMC3    C1 8083   1.884   0.835  17.644
  545TMC3    C2 8084   1.969   0.837  17.534
  545TMC3    C3 8085   1.976   0.720  17.457
  545TMC3    C4 8086   1.799   0.726  17.672
  545TMC3    C5 8087   1.799   0.623  17.582
  545TMC3    C6 8088   1.884   0.617  17.477
  545TMC3     C 8089   1.909   0.942  17.742
  545TMC3     O 8090   1.985   1.033  17.707
  545TMC3     H 8091   2.026   0.927  17.514
  545TMC3    H1 8092   1.731   0.728  17.756
  545TMC3    H2 8093   1.879   0.535  17.406
  545TMC3    C7 8094   1.730   0.507  17.621
  545TMC3    C8 8095   2.046   0.709  17.332
  545TMC3    O1 8096   1.633   0.525  17.693
  545TMC3    O2 8097   2.061   0.597  17.279
  546MPD2     C 8098   3.548   1.492  17.819
  546MPD2    C1 8099   3.445   1.548  17.750
  546MPD2    C2 8100   3.469   1.659  17.671
  546MPD2    C3 8101   3.595   1.718  17.675
  546MPD2    C4 8102   3.700   1.652  17.738
  546MPD2    C5 8103   3.675   1.546  17.815
  546MPD2     H 8104   3.385   1.707  17.623
  546MPD2    H1 8105   3.798   1.699  17.730
  546MPD2    H2 8106   3.539   1.401  17.878
  546MPD2    H3 8107   3.752   1.506  17.880
  546MPD2     N 8108   3.634   1.826  17.591
  546MPD2    H5 8109   3.720   1.872  17.617
  546MPD2    N1 8110   3.322   1.472  17.745
  546MPD2    H7 8111   3.325   1.391  17.806
  547TMC3    C1 8112   3.114   1.389  17.668
  547TMC3    C2 8113   3.029   1.397  17.560
  547TMC3    C3 8114   2.952   1.283  17.544
  547TMC3    C4 8115   3.130   1.283  17.757
  547TMC3    C5 8116   3.053   1.176  17.730
  547TMC3    C6 8117   2.963   1.170  17.622
  547TMC3     C 8118   3.204   1.503  17.680
  547TMC3     O 8119   3.171   1.596  17.617
  547TMC3     H 8120   3.026   1.478  17.487
  547TMC3    H1 8121   3.177   1.286  17.854
  547TMC3    H2 8122   2.888   1.092  17.621
  547TMC3    C7 8123   3.044   1.077  17.833
  547TMC3    C8 8124   2.854   1.299  17.437
  547TMC3    O1 8125   3.050   1.117  17.948
  547TMC3    O2 8126   2.858   1.405  17.375
  548MPD2     C 8127   3.047   2.490  12.801
  548MPD2    C1 8128   3.025   2.390  12.897
  548MPD2    C2 8129   3.115   2.284  12.890
  548MPD2    C3 8130   3.212   2.269  12.788
  548MPD2    C4 8131   3.226   2.369  12.697
  548MPD2    C5 8132   3.150   2.487  12.708
  548MPD2     H 8133   3.110   2.215  12.973
  548MPD2    H1 8134   3.307   2.380  12.627
  548MPD2    H2 8135   2.983   2.577  12.788
  548MPD2    H3 8136   3.171   2.560  12.631
  548MPD2     N 8137   3.287   2.148  12.790
  548MPD2    H5 8138   3.264   2.088  12.869
  548MPD2    N1 8139   2.914   2.399  12.988
  548MPD2    H7 8140   2.853   2.476  12.963
  549TMC3    C1 8141   2.740   2.298  13.123
  549TMC3    C2 8142   2.653   2.372  13.057
  549TMC3    C3 8143   2.525   2.373  13.099
  549TMC3    C4 8144   2.701   2.206  13.216
  549TMC3    C5 8145   2.566   2.198  13.240
  549TMC3    C6 8146   2.472   2.282  13.188
  549TMC3     C 8147   2.883   2.309  13.086
  549TMC3     O 8148   2.955   2.222  13.135
  549TMC3     H 8149   2.682   2.438  12.977
  549TMC3    H1 8150   2.771   2.137  13.262
  549TMC3    H2 8151   2.365   2.268  13.199
  549TMC3    C7 8152   2.519   2.065  13.263
  549TMC3    C8 8153   2.430   2.453  13.019
  549TMC3    O1 8154   2.416   2.056  13.324
  549TMC3    O2 8155   2.317   2.413  12.999
  550TMC3    C1 8156   2.102   0.634  12.711
  550TMC3    C2 8157   2.050   0.595  12.830
  550TMC3    C3 8158   1.937   0.665  12.870
  550TMC3    C4 8159   2.049   0.732  12.635
  550TMC3    C5 8160   1.937   0.797  12.685
  550TMC3    C6 8161   1.879   0.760  12.800
  550TMC3     C 8162   2.158   0.520  12.634
  550TMC3     O 8163   2.221   0.434  12.691
  550TMC3     H 8164   2.092   0.519  12.895
  550TMC3    H1 8165   2.104   0.776  12.552
  550TMC3    H2 8166   1.785   0.804  12.830
  550TMC3    C7 8167   1.827   0.783  12.587
  550TMC3    C8 8168   1.876   0.649  13.004
  550TMC3    O1 8169   1.738   0.702  12.617
  550TMC3    O2 8170   1.846   0.750  13.065
  551TMC3    C1 8171   4.392   2.761  13.552
  551TMC3    C2 8172   4.505   2.756  13.475
  551TMC3    C3 8173   4.613   2.824  13.520
  551TMC3    C4 8174   4.385   2.834  13.666
  551TMC3    C5 8175   4.485   2.915  13.695
  551TMC3    C6 8176   4.600   2.907  13.629
  551TMC3     C 8177   4.273   2.757  13.466
  551TMC3     O 8178   4.265   2.661  13.390
  551TMC3     H 8179   4.516   2.705  13.380
  551TMC3    H1 8180   4.293   2.835  13.723
  551TMC3    H2 8181   4.684   2.960  13.673
  551TMC3    C7 8182   4.498   2.956  13.838
  551TMC3    C8 8183   4.722   2.834  13.430
  551TMC3    O1 8184   4.427   2.885  13.915
  551TMC3    O2 8185   4.747   2.729  13.373
  552MPD2     C 8186   1.246   0.053  14.262
  552MPD2    C1 8187   1.234   4.728  14.300
  552MPD2    C2 8188   1.301   4.676  14.405
  552MPD2    C3 8189   1.401   4.756  14.457
  552MPD2    C4 8190   1.428   0.076  14.398
  552MPD2    C5 8191   1.345   0.130  14.309
  552MPD2     H 8192   1.288   4.573  14.435
  552MPD2    H1 8193   1.516   0.131  14.429
  552MPD2    H2 8194   1.189   0.091  14.178
  552MPD2    H3 8195   1.373   0.224  14.263
  552MPD2     N 8196   1.473   4.726  14.574
  552MPD2    H5 8197   1.552   4.785  14.600
  552MPD2    N1 8198   1.147   4.642  14.230
  552MPD2    H7 8199   1.155   4.541  14.244
  553TMC3    C1 8200   0.986   4.556  14.063
  553TMC3    C2 8201   0.984   4.578  13.927
  553TMC3    C3 8202   1.013   4.475  13.837
  553TMC3    C4 8203   1.033   4.433  14.102
  553TMC3    C5 8204   1.052   4.329  14.011
  553TMC3    C6 8205   1.043   4.352  13.876
  553TMC3     C 8206   1.047   4.674  14.136
  553TMC3     O 8207   1.002   4.783  14.101
  553TMC3     H 8208   0.954   4.677  13.896
  553TMC3    H1 8209   1.042   4.410  14.207
  553TMC3    H2 8210   1.093   4.284  13.807
  553TMC3    C7 8211   1.121   4.212  14.058
  553TMC3    C8 8212   1.108   4.520  13.737
  553TMC3    O1 8213   1.070   4.108  14.026
  553TMC3    O2 8214   1.182   4.601  13.792
  554TMC3    C1 8215   2.986   4.187  11.801
  554TMC3    C2 8216   2.898   4.144  11.706
  554TMC3    C3 8217   2.946   4.069  11.606
  554TMC3    C4 8218   3.115   4.180  11.783
  554TMC3    C5 8219   3.167   4.113  11.676
  554TMC3    C6 8220   3.079   4.056  11.587
  554TMC3     C 8221   2.946   4.168  11.939
  554TMC3     O 8222   2.840   4.211  11.979
  554TMC3     H 8223   2.795   4.166  11.732
  554TMC3    H1 8224   3.178   4.228  11.857
  554TMC3    H2 8225   3.112   4.025  11.488
  554TMC3    C7 8226   3.288   4.169  11.619
  554TMC3    C8 8227   2.865   4.079  11.484
  554TMC3    O1 8228   3.319   4.110  11.518
  554TMC3    O2 8229   2.923   4.121  11.380
  555TMC3    C1 8230   2.053   3.235  15.065
  555TMC3    C2 8231   2.027   3.343  15.143
  555TMC3    C3 8232   2.064   3.325  15.272
  555TMC3    C4 8233   2.107   3.116  15.113
  555TMC3    C5 8234   2.130   3.104  15.246
  555TMC3    C6 8235   2.110   3.208  15.337
  555TMC3     C 8236   2.045   3.245  14.926
  555TMC3     O 8237   2.119   3.169  14.865
  555TMC3     H 8238   1.995   3.437  15.101
  555TMC3    H1 8239   2.121   3.026  15.053
  555TMC3    H2 8240   2.108   3.190  15.444
  555TMC3    C7 8241   2.177   2.978  15.304
  555TMC3    C8 8242   2.055   3.442  15.359
  555TMC3    O1 8243   2.153   2.866  15.261
  555TMC3    O2 8244   1.969   3.526  15.339
  556MPD2     C 8245   0.459   0.326  11.131
  556MPD2    C1 8246   0.453   0.201  11.186
  556MPD2    C2 8247   0.410   0.101  11.103
  556MPD2    C3 8248   0.400   0.116  10.968
  556MPD2    C4 8249   0.396   0.245  10.917
  556MPD2    C5 8250   0.435   0.346  11.000
  556MPD2     H 8251   0.405   0.003  11.149
  556MPD2    H1 8252   0.376   0.272  10.814
  556MPD2    H2 8253   0.471   0.418  11.187
  556MPD2    H3 8254   0.442   0.448  10.963
  556MPD2     N 8255   0.382   0.000  10.889
  556MPD2    H5 8256   0.396   4.713  10.930
  556MPD2    N1 8257   0.468   0.175  11.323
  556MPD2    H7 8258   0.445   0.082  11.356
  557TMC3    C1 8259   0.343   4.672  10.700
  557TMC3    C2 8260   0.379   4.658  10.572
  557TMC3    C3 8261   0.340   4.541  10.510
  557TMC3    C4 8262   0.273   4.580  10.771
  557TMC3    C5 8263   0.235   4.467  10.705
  557TMC3    C6 8264   0.260   4.450  10.574
  557TMC3     C 8265   0.369   4.804  10.751
  557TMC3     O 8266   0.355   0.087  10.672
  557TMC3     H 8267   0.439   4.731  10.520
  557TMC3    H1 8268   0.253   4.593  10.877
  557TMC3    H2 8269   0.196   4.383  10.518
  557TMC3    C7 8270   0.175   4.357  10.782
  557TMC3    C8 8271   0.337   4.543  10.366
  557TMC3    O1 8272   0.140   4.391  10.892
  557TMC3    O2 8273   0.350   4.654  10.308
  558TMC3    C1 8274   2.582   2.790  10.584
  558TMC3    C2 8275   2.465   2.749  10.647
  558TMC3    C3 8276   2.348   2.766  10.579
  558TMC3    C4 8277   2.582   2.852  10.460
  558TMC3    C5 8278   2.460   2.876  10.405
  558TMC3    C6 8279   2.340   2.832  10.461
  558TMC3     C 8280   2.713   2.784  10.649
  558TMC3     O 8281   2.815   2.772  10.578
  558TMC3     H 8282   2.468   2.681  10.732
  558TMC3    H1 8283   2.677   2.878  10.413
  558TMC3    H2 8284   2.246   2.877  10.431
  558TMC3    C7 8285   2.452   2.987  10.312
  558TMC3    C8 8286   2.222   2.756  10.650
  558TMC3    O1 8287   2.557   3.054  10.307
  558TMC3    O2 8288   2.108   2.760  10.601
  559MPD2     C 8289   2.725   3.857  11.022
  559MPD2    C1 8290   2.626   3.808  11.109
  559MPD2    C2 8291   2.664   3.769  11.236
  559MPD2    C3 8292   2.801   3.779  11.265
  559MPD2    C4 8293   2.893   3.841  11.184
  559MPD2    C5 8294   2.855   3.880  11.062
  559MPD2     H 8295   2.591   3.739  11.310
  559MPD2    H1 8296   2.997   3.853  11.213
  559MPD2    H2 8297   2.707   3.886  10.919
  559MPD2    H3 8298   2.921   3.922  10.986
  559MPD2     N 8299   2.840   3.722  11.389
  559MPD2    H5 8300   2.765   3.687  11.448
  559MPD2    N1 8301   2.491   3.807  11.064
  559MPD2    H7 8302   2.481   3.846  10.970
  560TMC3    C1 8303   2.968   3.627  11.564
  560TMC3    C2 8304   2.862   3.539  11.587
  560TMC3    C3 8305   2.881   3.438  11.673
  560TMC3    C4 8306   3.094   3.611  11.626
  560TMC3    C5 8307   3.105   3.499  11.709
  560TMC3    C6 8308   3.002   3.414  11.731
  560TMC3     C 8309   2.969   3.720  11.446
  560TMC3     O 8310   3.068   3.785  11.420
  560TMC3     H 8311   2.767   3.541  11.535
  560TMC3    H1 8312   3.168   3.689  11.613
  560TMC3    H2 8313   3.023   3.327  11.793
  560TMC3    C7 8314   3.236   3.452  11.758
  560TMC3    C8 8315   2.809   3.324  11.628
  560TMC3    O1 8316   3.233   3.362  11.841
  560TMC3    O2 8317   2.693   3.330  11.594
  561TMC3    C1 8318   0.884   2.626  11.245
  561TMC3    C2 8319   0.801   2.517  11.277
  561TMC3    C3 8320   0.708   2.545  11.366
  561TMC3    C4 8321   0.868   2.751  11.291
  561TMC3    C5 8322   0.765   2.770  11.378
  561TMC3    C6 8323   0.691   2.665  11.429
  561TMC3     C 8324   1.002   2.586  11.172
  561TMC3     O 8325   0.994   2.487  11.097
  561TMC3     H 8326   0.812   2.416  11.240
  561TMC3    H1 8327   0.932   2.829  11.252
  561TMC3    H2 8328   0.607   2.677  11.496
  561TMC3    C7 8329   0.732   2.899  11.434
  561TMC3    C8 8330   0.670   2.432  11.449
  561TMC3    O1 8331   0.693   2.895  11.550
  561TMC3    O2 8332   0.720   2.327  11.417
  562TMC3    C1 8333   2.115   3.887  16.723
  562TMC3    C2 8334   2.056   4.006  16.695
  562TMC3    C3 8335   1.950   4.005  16.609
  562TMC3    C4 8336   2.066   3.767  16.671
  562TMC3    C5 8337   1.947   3.769  16.601
  562TMC3    C6 8338   1.888   3.887  16.566
  562TMC3     C 8339   2.240   3.871  16.799
  562TMC3     O 8340   2.326   3.784  16.769
  562TMC3     H 8341   2.086   4.097  16.745
  562TMC3    H1 8342   2.118   3.679  16.705
  562TMC3    H2 8343   1.806   3.881  16.495
  562TMC3    C7 8344   1.893   3.648  16.543
  562TMC3    C8 8345   1.891   4.136  16.590
  562TMC3    O1 8346   1.816   3.662  16.451
  562TMC3    O2 8347   1.863   4.199  16.690
  563MPD2     C 8348   4.179   0.155  15.713
  563MPD2    C1 8349   4.216   0.186  15.842
  563MPD2    C2 8350   4.335   0.138  15.894
  563MPD2    C3 8351   4.407   0.043  15.822
  563MPD2    C4 8352   4.366   0.010  15.696
  563MPD2    C5 8353   4.254   0.063  15.642
  563MPD2     H 8354   4.368   0.163  15.994
  563MPD2    H1 8355   4.414   4.735  15.639
  563MPD2    H2 8356   4.076   0.167  15.682
  563MPD2    H3 8357   4.212   0.024  15.550
  563MPD2     N 8358   4.520   4.798  15.884
  563MPD2    H5 8359   4.522   0.020  15.982
  563MPD2    N1 8360   4.120   0.256  15.924
  563MPD2    H7 8361   4.026   0.271  15.888
  564TMC3    C1 8362   4.102   0.291  16.145
  564TMC3    C2 8363   3.986   0.223  16.144
  564TMC3    C3 8364   3.971   0.129  16.243
  564TMC3    C4 8365   4.194   0.278  16.245
  564TMC3    C5 8366   4.172   0.178  16.336
  564TMC3    C6 8367   4.053   0.112  16.349
  564TMC3     C 8368   4.159   0.345  16.019
  564TMC3     O 8369   4.270   0.395  16.029
  564TMC3     H 8370   3.912   0.237  16.066
  564TMC3    H1 8371   4.288   0.329  16.228
  564TMC3    H2 8372   4.049   0.022  16.409
  564TMC3    C7 8373   4.280   0.080  16.348
  564TMC3    C8 8374   3.930   4.803  16.196
  564TMC3    O1 8375   4.360   0.088  16.438
  564TMC3    O2 8376   3.886   4.714  16.273
  565TMC3    C1 8377   0.238   1.840  10.650
  565TMC3    C2 8378   0.251   1.748  10.755
  565TMC3    C3 8379   0.155   1.650  10.754
  565TMC3    C4 8380   0.139   1.841  10.554
  565TMC3    C5 8381   0.050   1.738  10.560
  565TMC3    C6 8382   0.058   1.640  10.657
  565TMC3     C 8383   0.312   1.959  10.651
  565TMC3     O 8384   0.315   2.020  10.546
  565TMC3     H 8385   0.319   1.748  10.839
  565TMC3    H1 8386   0.125   1.912  10.473
  565TMC3    H2 8387   4.787   1.563  10.668
  565TMC3    C7 8388   4.766   1.707  10.447
  565TMC3    C8 8389   0.173   1.536  10.851
  565TMC3    O1 8390   4.797   1.759  10.346
  565TMC3    O2 8391   0.227   1.560  10.959
  566MPD2     C 8392   1.804   3.021  14.720
  566MPD2    C1 8393   1.803   2.924  14.619
  566MPD2    C2 8394   1.685   2.877  14.578
  566MPD2    C3 8395   1.567   2.926  14.635
  566MPD2    C4 8396   1.566   3.011  14.739
  566MPD2    C5 8397   1.688   3.063  14.771
  566MPD2     H 8398   1.684   2.795  14.507
  566MPD2    H1 8399   1.475   3.056  14.777
  566MPD2    H2 8400   1.895   3.065  14.759
  566MPD2    H3 8401   1.674   3.136  14.850
  566MPD2     N 8402   1.440   2.870  14.590
  566MPD2    H5 8403   1.368   2.874  14.662
  566MPD2    N1 8404   1.920   2.882  14.561
  566MPD2    H7 8405   2.008   2.931  14.577
  567TMC3    C1 8406   2.032   2.761  14.385
  567TMC3    C2 8407   2.091   2.876  14.347
  567TMC3    C3 8408   2.221   2.879  14.318
  567TMC3    C4 8409   2.123   2.656  14.403
  567TMC3    C5 8410   2.258   2.661  14.391
  567TMC3    C6 8411   2.308   2.777  14.347
  567TMC3     C 8412   1.923   2.775  14.474
  567TMC3     O 8413   1.869   2.668  14.492
  567TMC3     H 8414   2.025   2.960  14.331
  567TMC3    H1 8415   2.081   2.558  14.421
  567TMC3    H2 8416   2.413   2.801  14.334
  567TMC3    C7 8417   2.327   2.629  14.509
  567TMC3    C8 8418   2.282   2.989  14.244
  567TMC3    O1 8419   2.440   2.669  14.518
  567TMC3    O2 8420   2.366   2.963  14.158
  568MPD2     C 8421   3.889   3.333  16.391
  568MPD2    C1 8422   3.945   3.420  16.483
  568MPD2    C2 8423   3.951   3.553  16.454
  568MPD2    C3 8424   3.905   3.610  16.347
  568MPD2    C4 8425   3.833   3.530  16.257
  568MPD2    C5 8426   3.825   3.391  16.285
  568MPD2     H 8427   3.998   3.610  16.533
  568MPD2    H1 8428   3.781   3.568  16.170
  568MPD2    H2 8429   3.879   3.227  16.413
  568MPD2    H3 8430   3.777   3.333  16.207
  568MPD2     N 8431   3.942   3.747  16.331
  568MPD2    H5 8432   4.013   3.787  16.391
  568MPD2    N1 8433   4.010   3.364  16.594
  568MPD2    H7 8434   4.034   3.266  16.592
  569TMC3    C1 8435   3.949   3.956  16.229
  569TMC3    C2 8436   3.966   4.010  16.354
  569TMC3    C3 8437   4.059   4.113  16.368
  569TMC3    C4 8438   4.021   3.994  16.118
  569TMC3    C5 8439   4.102   4.099  16.134
  569TMC3    C6 8440   4.111   4.168  16.254
  569TMC3     C 8441   3.900   3.821  16.226
  569TMC3     O 8442   3.835   3.791  16.129
  569TMC3     H 8443   3.898   3.977  16.433
  569TMC3    H1 8444   4.022   3.930  16.031
  569TMC3    H2 8445   4.174   4.255  16.270
  569TMC3    C7 8446   4.106   4.184  16.019
  569TMC3    C8 8447   4.020   4.224  16.453
  569TMC3    O1 8448   4.126   4.135  15.908
  569TMC3    O2 8449   3.901   4.227  16.490
  570TMC3    C1 8450   3.441   2.394  16.309
  570TMC3    C2 8451   3.560   2.357  16.256
  570TMC3    C3 8452   3.646   2.456  16.227
  570TMC3    C4 8453   3.402   2.527  16.310
  570TMC3    C5 8454   3.475   2.620  16.249
  570TMC3    C6 8455   3.606   2.587  16.224
  570TMC3     C 8456   3.398   2.312  16.427
  570TMC3     O 8457   3.440   2.197  16.434
  570TMC3     H 8458   3.594   2.255  16.250
  570TMC3    H1 8459   3.312   2.558  16.362
  570TMC3    H2 8460   3.676   2.661  16.186
  570TMC3    C7 8461   3.451   2.755  16.276
  570TMC3    C8 8462   3.789   2.438  16.200
  570TMC3    O1 8463   3.548   2.828  16.300
  570TMC3    O2 8464   3.863   2.521  16.251
  571MPD2     C 8465   1.364   4.344  17.740
  571MPD2    C1 8466   1.271   4.405  17.823
  571MPD2    C2 8467   1.310   4.512  17.904
  571MPD2    C3 8468   1.441   4.547  17.919
  571MPD2    C4 8469   1.536   4.480  17.847
  571MPD2    C5 8470   1.497   4.374  17.763
  571MPD2     H 8471   1.230   4.573  17.944
  571MPD2    H1 8472   1.644   4.487  17.859
  571MPD2    H2 8473   1.344   4.264  17.669
  571MPD2    H3 8474   1.569   4.320  17.703
  571MPD2     N 8475   1.476   4.645  18.010
  571MPD2    H5 8476   1.576   4.648  18.025
  571MPD2    N1 8477   1.137   4.355  17.822
  571MPD2    H7 8478   1.125   4.283  17.751
  572TMC3    C1 8479   1.459   0.040  18.144
  572TMC3    C2 8480   1.558   0.010  18.237
  572TMC3    C3 8481   1.585   0.090  18.348
  572TMC3    C4 8482   1.384   0.152  18.171
  572TMC3    C5 8483   1.409   0.228  18.279
  572TMC3    C6 8484   1.505   0.197  18.370
  572TMC3     C 8485   1.395   4.748  18.055
  572TMC3     O 8486   1.279   4.772  18.018
  572TMC3     H 8487   1.613   4.722  18.238
  572TMC3    H1 8488   1.308   0.186  18.101
  572TMC3    H2 8489   1.526   0.270  18.447
  572TMC3    C7 8490   1.343   0.365  18.286
  572TMC3    C8 8491   1.699   0.061  18.434
  572TMC3    O1 8492   1.229   0.367  18.238
  572TMC3    O2 8493   1.799   0.012  18.381
  573MPD2     C 8494   2.204   4.492  18.482
  573MPD2    C1 8495   2.304   4.568  18.430
  573MPD2    C2 8496   2.327   4.568  18.294
  573MPD2    C3 8497   2.247   4.480  18.215
  573MPD2    C4 8498   2.161   4.388  18.280
  573MPD2    C5 8499   2.146   4.392  18.413
  573MPD2     H 8500   2.392   4.642  18.249
  573MPD2    H1 8501   2.113   4.303  18.232
  573MPD2    H2 8502   2.178   4.484  18.587
  573MPD2    H3 8503   2.084   4.320  18.465
  573MPD2     N 8504   2.256   4.467  18.076
  573MPD2    H5 8505   2.202   4.389  18.041
  573MPD2    N1 8506   2.354   4.668  18.517
  573MPD2    H7 8507   2.309   4.685  18.606
  574TMC3    C1 8508   2.271   4.545  17.857
  574TMC3    C2 8509   2.133   4.543  17.838
  574TMC3    C3 8510   2.078   4.578  17.716
  574TMC3    C4 8511   2.351   4.597  17.757
  574TMC3    C5 8512   2.292   4.618  17.635
  574TMC3    C6 8513   2.160   4.602  17.610
  574TMC3     C 8514   2.312   4.561  17.992
  574TMC3     O 8515   2.388   4.652  18.024
  574TMC3     H 8516   2.064   4.537  17.921
  574TMC3    H1 8517   2.459   4.593  17.756
  574TMC3    H2 8518   2.129   4.648  17.516
  574TMC3    C7 8519   2.360   4.693  17.535
  574TMC3    C8 8520   1.939   4.626  17.724
  574TMC3    O1 8521   2.320   4.688  17.419
  574TMC3    O2 8522   1.863   4.578  17.811
  575TMC3    C1 8523   0.562   1.136  11.523
  575TMC3    C2 8524   0.515   1.019  11.571
  575TMC3    C3 8525   0.425   0.947  11.504
  575TMC3    C4 8526   0.511   1.187  11.404
  575TMC3    C5 8527   0.416   1.116  11.338
  575TMC3    C6 8528   0.365   0.995  11.388
  575TMC3     C 8529   0.695   1.177  11.569
  575TMC3     O 8530   0.727   1.150  11.682
  575TMC3     H 8531   0.572   0.969  11.648
  575TMC3    H1 8532   0.548   1.277  11.357
  575TMC3    H2 8533   0.279   0.941  11.351
  575TMC3    C7 8534   0.340   1.189  11.246
  575TMC3    C8 8535   0.373   0.828  11.559
  575TMC3    O1 8536   0.328   1.310  11.261
  575TMC3    O2 8537   0.370   0.822  11.681
  576MPD2     C 8538   0.026   2.519  12.776
  576MPD2    C1 8539   0.011   2.630  12.688
  576MPD2    C2 8540   4.748   2.738  12.740
  576MPD2    C3 8541   4.686   2.740  12.858
  576MPD2    C4 8542   4.696   2.635  12.939
  576MPD2    C5 8543   4.775   2.526  12.899
  576MPD2     H 8544   4.737   2.826  12.677
  576MPD2    H1 8545   4.643   2.617  13.032
  576MPD2    H2 8546   0.064   2.425  12.738
  576MPD2    H3 8547   4.784   2.442  12.967
  576MPD2     N 8548   4.632   2.861  12.894
  576MPD2    H5 8549   4.632   2.938  12.828
  576MPD2    N1 8550   0.070   2.641  12.557
  576MPD2    H7 8551   0.060   2.729  12.509
  577TMC3    C1 8552   0.196   2.589  12.371
  577TMC3    C2 8553   0.217   2.478  12.289
  577TMC3    C3 8554   0.257   2.497  12.161
  577TMC3    C4 8555   0.186   2.711  12.321
  577TMC3    C5 8556   0.224   2.727  12.193
  577TMC3    C6 8557   0.265   2.622  12.115
  577TMC3     C 8558   0.161   2.552  12.507
  577TMC3     O 8559   0.204   2.443  12.543
  577TMC3     H 8560   0.216   2.377  12.329
  577TMC3    H1 8561   0.181   2.799  12.384
  577TMC3    H2 8562   0.304   2.656  12.020
  577TMC3    C7 8563   0.226   2.858  12.139
  577TMC3    C8 8564   0.337   2.395  12.096
  577TMC3    O1 8565   0.327   2.873  12.072
  577TMC3    O2 8566   0.376   2.307  12.169
  578MPD2     C 8567   2.439   2.629  18.898
  578MPD2    C1 8568   2.522   2.550  18.821
  578MPD2    C2 8569   2.642   2.503  18.880
  578MPD2    C3 8570   2.668   2.527  19.014
  578MPD2    C4 8571   2.576   2.600  19.088
  578MPD2    C5 8572   2.465   2.647  19.029
  578MPD2     H 8573   2.713   2.442  18.826
  578MPD2    H1 8574   2.583   2.614  19.195
  578MPD2    H2 8575   2.350   2.673  18.856
  578MPD2    H3 8576   2.407   2.704  19.101
  578MPD2     N 8577   2.785   2.474  19.061
  578MPD2    H5 8578   2.831   2.412  18.996
  578MPD2    N1 8579   2.504   2.547  18.680
  578MPD2    H7 8580   2.417   2.594  18.658
  579TMC3    C1 8581   2.963   2.431  19.208
  579TMC3    C2 8582   3.059   2.493  19.280
  579TMC3    C3 8583   3.170   2.422  19.315
  579TMC3    C4 8584   2.970   2.295  19.172
  579TMC3    C5 8585   3.076   2.222  19.222
  579TMC3    C6 8586   3.179   2.287  19.289
  579TMC3     C 8587   2.841   2.499  19.188
  579TMC3     O 8588   2.824   2.598  19.255
  579TMC3     H 8589   3.068   2.600  19.295
  579TMC3    H1 8590   2.888   2.237  19.131
  579TMC3    H2 8591   3.263   2.226  19.319
  579TMC3    C7 8592   3.104   2.091  19.170
  579TMC3    C8 8593   3.281   2.494  19.362
  579TMC3    O1 8594   3.197   2.028  19.220
  579TMC3    O2 8595   3.269   2.606  19.404
  580TMC3    C1 8596   2.678   2.050  12.395
  580TMC3    C2 8597   2.799   2.075  12.331
  580TMC3    C3 8598   2.863   1.975  12.270
  580TMC3    C4 8599   2.638   1.916  12.405
  580TMC3    C5 8600   2.713   1.821  12.343
  580TMC3    C6 8601   2.812   1.849  12.260
  580TMC3     C 8602   2.586   2.161  12.397
  580TMC3     O 8603   2.648   2.268  12.406
  580TMC3     H 8604   2.821   2.179  12.310
  580TMC3    H1 8605   2.547   1.903  12.462
  580TMC3    H2 8606   2.853   1.778  12.188
  580TMC3    C7 8607   2.728   1.695  12.411
  580TMC3    C8 8608   2.956   2.020  12.158
  580TMC3    O1 8609   2.679   1.675  12.524
  580TMC3    O2 8610   2.931   1.969  12.052
  581MPD2     C 8611   0.505   1.386  14.733
  581MPD2    C1 8612   0.479   1.404  14.865
  581MPD2    C2 8613   0.352   1.447  14.906
  581MPD2    C3 8614   0.268   1.495  14.811
  581MPD2    C4 8615   0.297   1.475  14.679
  581MPD2    C5 8616   0.412   1.424  14.643
  581MPD2     H 8617   0.328   1.452  15.011
  581MPD2    H1 8618   0.231   1.499  14.597
  581MPD2    H2 8619   0.599   1.359  14.685
  581MPD2    H3 8620   0.440   1.418  14.538
  581MPD2     N 8621   0.144   1.538  14.855
  581MPD2    H5 8622   0.140   1.553  14.955
  581MPD2    N1 8623   0.576   1.360  14.950
  581MPD2    H7 8624   0.654   1.307  14.912
  582TMC3    C1 8625   0.676   1.300  15.156
  582TMC3    C2 8626   0.718   1.342  15.273
  582TMC3    C3 8627   0.766   1.243  15.347
  582TMC3    C4 8628   0.665   1.171  15.118
  582TMC3    C5 8629   0.698   1.074  15.207
  582TMC3    C6 8630   0.770   1.110  15.317
  582TMC3     C 8631   0.576   1.376  15.086
  582TMC3     O 8632   0.518   1.460  15.146
  582TMC3     H 8633   0.703   1.447  15.297
  582TMC3    H1 8634   0.607   1.129  15.036
  582TMC3    H2 8635   0.804   1.042  15.394
  582TMC3    C7 8636   0.578   1.004  15.243
  582TMC3    C8 8637   0.794   1.285  15.481
  582TMC3    O1 8638   0.515   0.933  15.163
  582TMC3    O2 8639   0.719   1.365  15.526
  583MPD2     C 8640   0.582   2.942  16.919
  583MPD2    C1 8641   0.561   3.061  16.852
  583MPD2    C2 8642   0.494   3.168  16.919
  583MPD2    C3 8643   0.458   3.156  17.046
  583MPD2    C4 8644   0.471   3.038  17.114
  583MPD2    C5 8645   0.534   2.939  17.046
  583MPD2     H 8646   0.496   3.266  16.872
  583MPD2    H1 8647   0.436   3.017  17.214
  583MPD2    H2 8648   0.624   2.849  16.883
  583MPD2    H3 8649   0.567   2.850  17.098
  583MPD2     N 8650   0.395   3.262  17.107
  583MPD2    H5 8651   0.370   3.342  17.049
  583MPD2    N1 8652   0.614   3.081  16.720
  583MPD2    H7 8653   0.597   3.169  16.671
  584TMC3    C1 8654   0.315   3.407  17.274
  584TMC3    C2 8655   0.335   3.510  17.191
  584TMC3    C3 8656   0.306   3.634  17.236
  584TMC3    C4 8657   0.255   3.428  17.396
  584TMC3    C5 8658   0.211   3.550  17.432
  584TMC3    C6 8659   0.232   3.653  17.348
  584TMC3     C 8660   0.357   3.274  17.240
  584TMC3     O 8661   0.338   3.192  17.326
  584TMC3     H 8662   0.388   3.500  17.096
  584TMC3    H1 8663   0.245   3.345  17.464
  584TMC3    H2 8664   0.180   3.747  17.360
  584TMC3    C7 8665   0.123   3.552  17.558
  584TMC3    C8 8666   0.308   3.740  17.140
  584TMC3    O1 8667   0.118   3.445  17.618
  584TMC3    O2 8668   0.293   3.719  17.019
  585MPD2     C 8669   4.597   2.258  18.824
  585MPD2    C1 8670   4.679   2.306  18.726
  585MPD2    C2 8671   4.679   2.241  18.606
  585MPD2    C3 8672   4.599   2.133  18.584
  585MPD2    C4 8673   4.526   2.081  18.685
  585MPD2    C5 8674   4.528   2.141  18.806
  585MPD2     H 8675   4.734   2.274  18.518
  585MPD2    H1 8676   4.470   1.990  18.664
  585MPD2    H2 8677   4.583   2.319  18.913
  585MPD2    H3 8678   4.452   2.116  18.880
  585MPD2     N 8679   4.577   2.079  18.452
  585MPD2    H5 8680   4.515   1.998  18.453
  585MPD2    N1 8681   4.741   2.433  18.738
  585MPD2    H7 8682   4.693   2.503  18.793
  586TMC3    C1 8683   4.611   2.028  18.218
  586TMC3    C2 8684   4.707   2.046  18.132
  586TMC3    C3 8685   4.708   1.994  18.009
  586TMC3    C4 8686   4.488   1.968  18.186
  586TMC3    C5 8687   4.487   1.925  18.056
  586TMC3    C6 8688   4.587   1.932  17.970
  586TMC3     C 8689   4.620   2.122  18.330
  586TMC3     O 8690   4.689   2.224  18.308
  586TMC3     H 8691   4.795   2.101  18.163
  586TMC3    H1 8692   4.405   1.957  18.255
  586TMC3    H2 8693   4.583   1.883  17.873
  586TMC3    C7 8694   4.364   1.876  18.002
  586TMC3    C8 8695   0.031   1.948  17.949
  586TMC3    O1 8696   4.289   1.808  18.073
  586TMC3    O2 8697   0.088   1.845  17.986
  587TMC3    C1 8698   1.932   0.689  16.360
  587TMC3    C2 8699   1.938   0.812  16.411
  587TMC3    C3 8700   2.057   0.844  16.474
  587TMC3    C4 8701   2.038   0.602  16.368
  587TMC3    C5 8702   2.152   0.639  16.426
  587TMC3    C6 8703   2.161   0.760  16.486
  587TMC3     C 8704   1.811   0.634  16.297
  587TMC3     O 8705   1.822   0.530  16.232
  587TMC3     H 8706   1.859   0.885  16.418
  587TMC3    H1 8707   2.034   0.500  16.332
  587TMC3    H2 8708   2.251   0.784  16.542
  587TMC3    C7 8709   2.214   0.531  16.508
  587TMC3    C8 8710   2.089   0.978  16.505
  587TMC3    O1 8711   2.136   0.438  16.530
  587TMC3    O2 8712   2.206   1.012  16.488
  588TMC3    C1 8713   4.191   3.788  10.089
  588TMC3    C2 8714   4.182   3.650  10.087
  588TMC3    C3 8715   4.297   3.577  10.096
  588TMC3    C4 8716   4.309   3.858  10.105
  588TMC3    C5 8717   4.425   3.779  10.114
  588TMC3    C6 8718   4.419   3.634  10.114
  588TMC3     C 8719   4.089   3.860  10.016
  588TMC3     O 8720   3.979   3.806  10.015
  588TMC3     H 8721   4.090   3.609  10.047
  588TMC3    H1 8722   4.293   3.962  10.131
  588TMC3    H2 8723   4.508   3.589  10.073
  588TMC3    C7 8724   4.547   3.853  10.108
  588TMC3    C8 8725   4.283   3.432  10.071
  588TMC3    O1 8726   4.647   3.786  10.104
  588TMC3    O2 8727   4.186   3.396  10.003
  589TMC3    C1 8728   3.656   0.660  18.625
  589TMC3    C2 8729   3.723   0.685  18.751
  589TMC3    C3 8730   3.860   0.678  18.746
  589TMC3    C4 8731   3.724   0.642  18.513
  589TMC3    C5 8732   3.860   0.624  18.516
  589TMC3    C6 8733   3.936   0.641  18.633
  589TMC3     C 8734   3.537   0.578  18.633
  589TMC3     O 8735   3.504   0.518  18.534
  589TMC3     H 8736   3.682   0.705  18.849
  589TMC3    H1 8737   3.680   0.604  18.422
  589TMC3    H2 8738   4.044   0.644  18.636
  589TMC3    C7 8739   3.899   0.511  18.436
  589TMC3    C8 8740   3.918   0.663  18.873
  589TMC3    O1 8741   3.816   0.458  18.366
  589TMC3    O2 8742   3.857   0.583  18.943
  590MPD2     C 8743   2.701   3.716  16.682
  590MPD2    C1 8744   2.673   3.811  16.585
  590MPD2    C2 8745   2.773   3.887  16.539
  590MPD2    C3 8746   2.900   3.878  16.598
  590MPD2    C4 8747   2.927   3.800  16.701
  590MPD2    C5 8748   2.828   3.712  16.740
  590MPD2     H 8749   2.747   3.959  16.463
  590MPD2    H1 8750   3.012   3.810  16.767
  590MPD2    H2 8751   2.626   3.651  16.726
  590MPD2    H3 8752   2.846   3.642  16.821
  590MPD2     N 8753   2.995   3.966  16.551
  590MPD2    H5 8754   2.965   4.035  16.483
  590MPD2    N1 8755   2.542   3.816  16.522
  590MPD2    H7 8756   2.459   3.787  16.573
  591TMC3    C1 8757   3.204   4.057  16.510
  591TMC3    C2 8758   3.313   4.014  16.435
  591TMC3    C3 8759   3.347   4.106  16.343
  591TMC3    C4 8760   3.133   4.176  16.491
  591TMC3    C5 8761   3.189   4.269  16.409
  591TMC3    C6 8762   3.294   4.231  16.329
  591TMC3     C 8763   3.128   3.960  16.582
  591TMC3     O 8764   3.190   3.867  16.631
  591TMC3     H 8765   3.363   3.919  16.449
  591TMC3    H1 8766   3.051   4.208  16.554
  591TMC3    H2 8767   3.310   4.279  16.233
  591TMC3    C7 8768   3.115   4.385  16.378
  591TMC3    C8 8769   3.447   4.062  16.249
  591TMC3    O1 8770   2.998   4.388  16.407
  591TMC3    O2 8771   3.466   3.940  16.230
  592MPD2     C 8772   3.572   1.418  11.854
  592MPD2    C1 8773   3.569   1.461  11.983
  592MPD2    C2 8774   3.524   1.380  12.092
  592MPD2    C3 8775   3.462   1.260  12.058
  592MPD2    C4 8776   3.459   1.227  11.926
  592MPD2    C5 8777   3.512   1.301  11.824
  592MPD2     H 8778   3.532   1.412  12.195
  592MPD2    H1 8779   3.416   1.133  11.894
  592MPD2    H2 8780   3.612   1.467  11.766
  592MPD2    H3 8781   3.522   1.268  11.721
  592MPD2     N 8782   3.398   1.179  12.159
  592MPD2    H5 8783   3.419   1.200  12.256
  592MPD2    N1 8784   3.622   1.593  11.995
  592MPD2    H7 8785   3.664   1.626  11.908
  593TMC3    C1 8786   3.725   1.772  12.098
  593TMC3    C2 8787   3.723   1.856  12.209
  593TMC3    C3 8788   3.814   1.958  12.209
  593TMC3    C4 8789   3.822   1.786  11.993
  593TMC3    C5 8790   3.903   1.897  12.001
  593TMC3    C6 8791   3.899   1.985  12.106
  593TMC3     C 8792   3.636   1.659  12.117
  593TMC3     O 8793   3.588   1.634  12.225
  593TMC3     H 8794   3.655   1.848  12.293
  593TMC3    H1 8795   3.828   1.711  11.916
  593TMC3    H2 8796   3.941   2.084  12.101
  593TMC3    C7 8797   3.973   1.951  11.885
  593TMC3    C8 8798   3.792   2.058  12.305
  593TMC3    O1 8799   4.046   2.051  11.906
  593TMC3    O2 8800   3.685   2.060  12.367
  594MPD2     C 8801   2.001   0.041  14.418
  594MPD2    C1 8802   2.007   0.049  14.556
  594MPD2    C2 8803   2.091   0.134  14.628
  594MPD2    C3 8804   2.167   0.222  14.555
  594MPD2    C4 8805   2.162   0.215  14.416
  594MPD2    C5 8806   2.094   0.114  14.349
  594MPD2     H 8807   2.101   0.141  14.735
  594MPD2    H1 8808   2.211   0.285  14.349
  594MPD2    H2 8809   1.933   4.777  14.371
  594MPD2    H3 8810   2.098   0.100  14.242
  594MPD2     N 8811   2.263   0.300  14.623
  594MPD2    H5 8812   2.261   0.297  14.725
  594MPD2    N1 8813   1.922   4.769  14.614
  594MPD2    H7 8814   1.869   4.705  14.555
  595TMC3    C1 8815   2.594   0.633  14.661
  595TMC3    C2 8816   2.534   0.534  14.589
  595TMC3    C3 8817   2.441   0.457  14.650
  595TMC3    C4 8818   2.555   0.648  14.791
  595TMC3    C5 8819   2.452   0.577  14.852
  595TMC3    C6 8820   2.395   0.479  14.782
  595TMC3     C 8821   2.731   0.663  14.637
  595TMC3     O 8822   2.773   0.751  14.711
  595TMC3     H 8823   2.562   0.510  14.487
  595TMC3    H1 8824   2.601   0.730  14.845
  595TMC3    H2 8825   2.306   0.431  14.819
  595TMC3    C7 8826   2.383   0.637  14.969
  595TMC3    C8 8827   2.371   0.360  14.563
  595TMC3    O1 8828   2.261   0.631  14.981
  595TMC3    O2 8829   2.413   0.334  14.450
  596MPD2     C 8830   1.231   3.120  17.107
  596MPD2    C1 8831   1.238   3.224  17.016
  596MPD2    C2 8832   1.289   3.196  16.886
  596MPD2    C3 8833   1.325   3.063  16.856
  596MPD2    C4 8834   1.322   2.964  16.957
  596MPD2    C5 8835   1.269   2.989  17.082
  596MPD2     H 8836   1.299   3.279  16.818
  596MPD2    H1 8837   1.364   2.868  16.928
  596MPD2    H2 8838   1.193   3.144  17.206
  596MPD2    H3 8839   1.281   2.913  17.159
  596MPD2     N 8840   1.376   3.033  16.725
  596MPD2    H5 8841   1.385   2.935  16.703
  596MPD2    N1 8842   1.195   3.357  17.039
  596MPD2    H7 8843   1.218   3.414  16.958
  597TMC3    C1 8844   1.071   3.533  17.140
  597TMC3    C2 8845   1.142   3.626  17.073
  597TMC3    C3 8846   1.101   3.753  17.071
  597TMC3    C4 8847   0.962   3.569  17.215
  597TMC3    C5 8848   0.935   3.703  17.216
  597TMC3    C6 8849   0.996   3.798  17.145
  597TMC3     C 8850   1.109   3.396  17.141
  597TMC3     O 8851   1.057   3.329  17.232
  597TMC3     H 8852   1.234   3.590  17.029
  597TMC3    H1 8853   0.889   3.503  17.261
  597TMC3    H2 8854   0.959   3.900  17.138
  597TMC3    C7 8855   0.845   3.738  17.330
  597TMC3    C8 8856   1.171   3.841  16.982
  597TMC3    O1 8857   0.784   3.645  17.385
  597TMC3    O2 8858   1.115   3.944  16.943
  598TMC3    C1 8859   4.247   4.507  15.398
  598TMC3    C2 8860   4.123   4.448  15.403
  598TMC3    C3 8861   4.041   4.475  15.298
  598TMC3    C4 8862   4.289   4.593  15.294
  598TMC3    C5 8863   4.191   4.619  15.199
  598TMC3    C6 8864   4.068   4.560  15.193
  598TMC3     C 8865   4.342   4.444  15.493
  598TMC3     O 8866   4.281   4.398  15.589
  598TMC3     H 8867   4.083   4.389  15.485
  598TMC3    H1 8868   4.388   4.638  15.292
  598TMC3    H2 8869   4.002   4.565  15.108
  598TMC3    C7 8870   4.215   4.707  15.080
  598TMC3    C8 8871   3.907   4.418  15.301
  598TMC3    O1 8872   4.160   4.674  14.975
  598TMC3    O2 8873   3.864   4.395  15.188
  599MPD2     C 8874   4.598   2.238  16.115
  599MPD2    C1 8875   4.537   2.113  16.118
  599MPD2    C2 8876   4.416   2.094  16.182
  599MPD2    C3 8877   4.357   2.209  16.242
  599MPD2    C4 8878   4.418   2.335  16.233
  599MPD2    C5 8879   4.540   2.343  16.173
  599MPD2     H 8880   4.359   2.002  16.178
  599MPD2    H1 8881   4.381   2.423  16.283
  599MPD2    H2 8882   4.694   2.249  16.066
  599MPD2    H3 8883   4.577   2.444  16.157
  599MPD2     N 8884   4.232   2.204  16.309
  599MPD2    H5 8885   4.209   2.293  16.351
  599MPD2    N1 8886   4.604   2.008  16.049
  599MPD2    H7 8887   4.695   2.030  16.011
  600TMC3    C1 8888   4.020   2.127  16.387
  600TMC3    C2 8889   3.930   2.028  16.408
  600TMC3    C3 8890   3.812   2.061  16.469
  600TMC3    C4 8891   3.989   2.255  16.421
  600TMC3    C5 8892   3.865   2.285  16.473
  600TMC3    C6 8893   3.770   2.188  16.495
  600TMC3     C 8894   4.144   2.096  16.319
  600TMC3     O 8895   4.148   1.987  16.262
  600TMC3     H 8896   3.960   1.924  16.403
  600TMC3    H1 8897   4.053   2.335  16.388
  600TMC3    H2 8898   3.674   2.199  16.545
  600TMC3    C7 8899   3.847   2.409  16.545
  600TMC3    C8 8900   3.733   1.951  16.520
  600TMC3    O1 8901   3.733   2.443  16.572
  600TMC3    O2 8902   3.789   1.845  16.548
  601MPD2     C 8903   1.346   0.880  18.275
  601MPD2    C1 8904   1.256   0.787  18.224
  601MPD2    C2 8905   1.281   0.661  18.246
  601MPD2    C3 8906   1.388   0.609  18.314
  601MPD2    C4 8907   1.471   0.699  18.374
  601MPD2    C5 8908   1.458   0.835  18.343
  601MPD2     H 8909   1.214   0.591  18.198
  601MPD2    H1 8910   1.561   0.674  18.429
  601MPD2    H2 8911   1.336   0.987  18.265
  601MPD2    H3 8912   1.519   0.911  18.391
  601MPD2     N 8913   1.427   0.467  18.323
  601MPD2    H5 8914   1.520   0.450  18.361
  601MPD2    N1 8915   1.141   0.831  18.149
  601MPD2    H7 8916   1.081   0.752  18.124
  602TMC3    C1 8917   0.981   0.951  18.030
  602TMC3    C2 8918   0.929   1.074  18.005
  602TMC3    C3 8919   0.820   1.088  17.924
  602TMC3    C4 8920   0.922   0.842  17.983
  602TMC3    C5 8921   0.813   0.863  17.902
  602TMC3    C6 8922   0.757   0.980  17.869
  602TMC3     C 8923   1.104   0.955  18.105
  602TMC3     O 8924   1.155   1.068  18.124
  602TMC3     H 8925   0.985   1.164  18.023
  602TMC3    H1 8926   0.965   0.742  17.990
  602TMC3    H2 8927   0.661   0.990  17.820
  602TMC3    C7 8928   0.788   0.753  17.803
  602TMC3    C8 8929   0.778   1.223  17.891
  602TMC3    O1 8930   0.813   0.636  17.828
  602TMC3    O2 8931   0.723   1.291  17.977
  603TMC3    C1 8932   4.696   0.653  11.320
  603TMC3    C2 8933   4.738   0.622  11.450
  603TMC3    C3 8934   4.781   0.727  11.536
  603TMC3    C4 8935   4.694   0.780  11.272
  603TMC3    C5 8936   4.736   0.880  11.350
  603TMC3    C6 8937   4.784   0.856  11.480
  603TMC3     C 8938   4.600   0.560  11.259
  603TMC3     O 8939   4.496   0.611  11.214
  603TMC3     H 8940   4.727   0.520  11.484
  603TMC3    H1 8941   4.663   0.800  11.170
  603TMC3    H2 8942   0.031   0.931  11.539
  603TMC3    C7 8943   4.726   1.009  11.291
  603TMC3    C8 8944   4.787   0.701  11.674
  603TMC3    O1 8945   0.007   1.083  11.339
  603TMC3    O2 8946   4.752   0.587  11.706
  604MPD2     C 8947   0.448   4.250  16.583
  604MPD2    C1 8948   0.348   4.212  16.499
  604MPD2    C2 8949   0.373   4.193  16.357
  604MPD2    C3 8950   0.501   4.189  16.312
  604MPD2    C4 8951   0.599   4.231  16.401
  604MPD2    C5 8952   0.568   4.267  16.529
  604MPD2     H 8953   0.289   4.179  16.290
  604MPD2    H1 8954   0.702   4.247  16.369
  604MPD2    H2 8955   0.429   4.272  16.688
  604MPD2    H3 8956   0.647   4.314  16.586
  604MPD2     N 8957   0.525   4.149  16.177
  604MPD2    H5 8958   0.439   4.124  16.130
  604MPD2    N1 8959   0.222   4.213  16.554
  604MPD2    H7 8960   0.217   4.253  16.647
  605TMC3    C1 8961   4.796   4.192  16.597
  605TMC3    C2 8962   0.054   4.219  16.718
  605TMC3    C3 8963   0.015   4.341  16.776
  605TMC3    C4 8964   4.691   4.266  16.543
  605TMC3    C5 8965   4.664   4.389  16.594
  605TMC3    C6 8966   4.733   4.422  16.713
  605TMC3     C 8967   0.101   4.169  16.499
  605TMC3     O 8968   0.074   4.109  16.396
  605TMC3     H 8969   0.130   4.153  16.755
  605TMC3    H1 8970   4.657   4.222  16.450
  605TMC3    H2 8971   4.749   4.527  16.734
  605TMC3    C7 8972   4.565   4.469  16.539
  605TMC3    C8 8973   0.131   4.398  16.849
  605TMC3    O1 8974   4.546   4.582  16.584
  605TMC3    O2 8975   0.230   4.330  16.833
  606TMC3    C1 8976   1.136   3.285  17.596
  606TMC3    C2 8977   1.075   3.260  17.717
  606TMC3    C3 8978   1.051   3.134  17.754
  606TMC3    C4 8979   1.156   3.178  17.510
  606TMC3    C5 8980   1.107   3.052  17.544
  606TMC3    C6 8981   1.053   3.024  17.667
  606TMC3     C 8982   1.170   3.420  17.566
  606TMC3     O 8983   1.118   3.513  17.636
  606TMC3     H 8984   1.064   3.340  17.790
  606TMC3    H1 8985   1.195   3.183  17.410
  606TMC3    H2 8986   1.039   2.924  17.706
  606TMC3    C7 8987   1.152   2.937  17.469
  606TMC3    C8 8988   1.088   3.100  17.890
  606TMC3    O1 8989   1.251   2.960  17.404
  606TMC3    O2 8990   1.149   3.193  17.943
  607MPD2     C 8991   3.641   0.940  11.918
  607MPD2    C1 8992   3.712   1.012  12.018
  607MPD2    C2 8993   3.696   0.972  12.150
  607MPD2    C3 8994   3.613   0.868  12.185
  607MPD2    C4 8995   3.529   0.812  12.089
  607MPD2    C5 8996   3.551   0.841  11.949
  607MPD2     H 8997   3.767   1.011  12.222
  607MPD2    H1 8998   3.457   0.733  12.109
  607MPD2    H2 8999   3.665   0.951  11.813
  607MPD2    H3 9000   3.486   0.793  11.877
  607MPD2     N 9001   3.619   0.841  12.323
  607MPD2    H5 9002   3.701   0.871  12.374
  607MPD2    N1 9003   3.795   1.127  11.993
  607MPD2    H7 9004   3.841   1.163  12.075
  608TMC3    C1 9005   3.903   1.312  11.926
  608TMC3    C2 9006   3.884   1.364  12.049
  608TMC3    C3 9007   3.952   1.467  12.089
  608TMC3    C4 9008   3.994   1.364  11.837
  608TMC3    C5 9009   4.075   1.473  11.886
  608TMC3    C6 9010   4.046   1.528  12.012
  608TMC3     C 9011   3.823   1.196  11.880
  608TMC3     O 9012   3.817   1.173  11.757
  608TMC3     H 9013   3.809   1.322  12.116
  608TMC3    H1 9014   4.014   1.326  11.738
  608TMC3    H2 9015   4.096   1.615  12.052
  608TMC3    C7 9016   4.154   1.546  11.791
  608TMC3    C8 9017   3.944   1.509  12.226
  608TMC3    O1 9018   4.150   1.509  11.672
  608TMC3    O2 9019   3.930   1.635  12.240
  609TMC3    C1 9020   2.125   0.572   9.482
  609TMC3    C2 9021   2.033   0.555   9.387
  609TMC3    C3 9022   2.056   0.464   9.286
  609TMC3    C4 9023   2.234   0.493   9.491
  609TMC3    C5 9024   2.256   0.398   9.391
  609TMC3    C6 9025   2.158   0.379   9.297
  609TMC3     C 9026   2.074   0.626   9.607
  609TMC3     O 9027   1.949   0.616   9.615
  609TMC3     H 9028   1.940   0.611   9.387
  609TMC3    H1 9029   2.288   0.495   9.585
  609TMC3    H2 9030   2.170   0.303   9.222
  609TMC3    C7 9031   2.373   0.305   9.403
  609TMC3    C8 9032   1.931   0.416   9.210
  609TMC3    O1 9033   2.446   0.336   9.501
  609TMC3    O2 9034   1.830   0.469   9.245
  610TMC3    C1 9035   4.082   0.998  12.782
  610TMC3    C2 9036   4.119   1.068  12.673
  610TMC3    C3 9037   4.202   1.009  12.581
  610TMC3    C4 9038   4.124   0.867  12.808
  610TMC3    C5 9039   4.210   0.811  12.718
  610TMC3    C6 9040   4.259   0.886  12.614
  610TMC3     C 9041   4.009   1.063  12.880
  610TMC3     O 9042   3.938   0.992  12.954
  610TMC3     H 9043   4.059   1.152  12.640
  610TMC3    H1 9044   4.090   0.815  12.897
  610TMC3    H2 9045   4.333   0.835  12.554
  610TMC3    C7 9046   4.298   0.700  12.772
  610TMC3    C8 9047   4.215   1.068  12.447
  610TMC3    O1 9048   4.419   0.718  12.763
  610TMC3    O2 9049   4.169   1.176  12.431
  611MPD2     C 9050   3.570   1.071  11.218
  611MPD2    C1 9051   3.527   1.133  11.102
  611MPD2    C2 9052   3.619   1.182  11.009
  611MPD2    C3 9053   3.749   1.174  11.046
  611MPD2    C4 9054   3.784   1.113  11.168
  611MPD2    C5 9055   3.701   1.059  11.258
  611MPD2     H 9056   3.597   1.215  10.908
  611MPD2    H1 9057   3.887   1.111  11.199
  611MPD2    H2 9058   3.495   1.040  11.290
  611MPD2    H3 9059   3.732   1.004  11.346
  611MPD2     N 9060   3.858   1.217  10.962
  611MPD2    H5 9061   3.949   1.205  11.007
  611MPD2    N1 9062   3.384   1.136  11.086
  611MPD2    H7 9063   3.331   1.078  11.150
  612TMC3    C1 9064   3.952   1.372  10.811
  612TMC3    C2 9065   4.060   1.388  10.894
  612TMC3    C3 9066   4.155   1.482  10.852
  612TMC3    C4 9067   3.939   1.446  10.698
  612TMC3    C5 9068   4.033   1.541  10.670
  612TMC3    C6 9069   4.140   1.564  10.746
  612TMC3     C 9070   3.841   1.293  10.849
  612TMC3     O 9071   3.741   1.314  10.781
  612TMC3     H 9072   4.057   1.355  10.998
  612TMC3    H1 9073   3.856   1.438  10.629
  612TMC3    H2 9074   4.220   1.624  10.705
  612TMC3    C7 9075   4.015   1.617  10.550
  612TMC3    C8 9076   4.286   1.485  10.919
  612TMC3    O1 9077   3.980   1.558  10.452
  612TMC3    O2 9078   4.348   1.592  10.900
  613MPD2     C 9079   2.889   3.338  16.643
  613MPD2    C1 9080   2.764   3.340  16.591
  613MPD2    C2 9081   2.659   3.268  16.643
  613MPD2    C3 9082   2.683   3.173  16.739
  613MPD2    C4 9083   2.809   3.177  16.799
  613MPD2    C5 9084   2.910   3.259  16.754
  613MPD2     H 9085   2.559   3.276  16.600
  613MPD2    H1 9086   2.826   3.101  16.875
  613MPD2    H2 9087   2.973   3.395  16.607
  613MPD2    H3 9088   3.009   3.254  16.797
  613MPD2     N 9089   2.597   3.062  16.770
  613MPD2    H5 9090   2.641   2.988  16.824
  613MPD2    N1 9091   2.756   3.411  16.467
  613MPD2    H7 9092   2.840   3.434  16.415
  614TMC3    C1 9093   2.635   3.426  16.265
  614TMC3    C2 9094   2.679   3.302  16.219
  614TMC3    C3 9095   2.613   3.242  16.112
  614TMC3    C4 9096   2.534   3.486  16.195
  614TMC3    C5 9097   2.486   3.432  16.079
  614TMC3    C6 9098   2.520   3.307  16.037
  614TMC3     C 9099   2.636   3.432  16.410
  614TMC3     O 9100   2.531   3.461  16.463
  614TMC3     H 9101   2.744   3.243  16.283
  614TMC3    H1 9102   2.495   3.582  16.227
  614TMC3    H2 9103   2.482   3.258  15.948
  614TMC3    C7 9104   2.376   3.500  16.019
  614TMC3    C8 9105   2.616   3.094  16.115
  614TMC3    O1 9106   2.318   3.588  16.081
  614TMC3    O2 9107   2.720   3.042  16.155
  615MPD2     C 9108   2.116   4.374  15.889
  615MPD2    C1 9109   2.009   4.439  15.949
  615MPD2    C2 9110   1.895   4.475  15.869
  615MPD2    C3 9111   1.889   4.437  15.740
  615MPD2    C4 9112   1.982   4.367  15.689
  615MPD2    C5 9113   2.099   4.342  15.759
  615MPD2     H 9114   1.816   4.537  15.909
  615MPD2    H1 9115   1.977   4.329  15.588
  615MPD2    H2 9116   2.198   4.325  15.940
  615MPD2    H3 9117   2.175   4.283  15.709
  615MPD2     N 9118   1.779   4.470  15.650
  615MPD2    H5 9119   1.789   4.440  15.554
  615MPD2    N1 9120   2.034   4.496  16.080
  615MPD2    H7 9121   1.974   4.568  16.118
  616TMC3    C1 9122   2.153   4.584  16.274
  616TMC3    C2 9123   2.279   4.608  16.330
  616TMC3    C3 9124   2.292   4.674  16.445
  616TMC3    C4 9125   2.038   4.610  16.339
  616TMC3    C5 9126   2.045   4.663  16.463
  616TMC3    C6 9127   2.173   4.694  16.514
  616TMC3     C 9128   2.157   4.501  16.153
  616TMC3     O 9129   2.264   4.449  16.128
  616TMC3     H 9130   2.363   4.603  16.262
  616TMC3    H1 9131   1.948   4.569  16.295
  616TMC3    H2 9132   2.182   4.752  16.605
  616TMC3    C7 9133   1.927   4.721  16.521
  616TMC3    C8 9134   2.342   0.002  16.427
  616TMC3    O1 9135   1.933   4.739  16.640
  616TMC3    O2 9136   2.254   0.090  16.436
  617MPD2     C 9137   0.221   2.700  13.848
  617MPD2    C1 9138   0.229   2.737  13.981
  617MPD2    C2 9139   0.113   2.755  14.052
  617MPD2    C3 9140   4.795   2.713  13.999
  617MPD2    C4 9141   4.784   2.680  13.863
  617MPD2    C5 9142   0.095   2.678  13.787
  617MPD2     H 9143   0.109   2.788  14.156
  617MPD2    H1 9144   4.688   2.663  13.817
  617MPD2    H2 9145   0.310   2.706  13.787
  617MPD2    H3 9146   0.085   2.660  13.681
  617MPD2     N 9147   4.678   2.707  14.080
  617MPD2    H5 9148   4.589   2.685  14.035
  617MPD2    N1 9149   0.358   2.761  14.036
  617MPD2    H7 9150   0.445   2.737  13.988
  618TMC3    C1 9151   0.515   2.799  14.188
  618TMC3    C2 9152   0.574   2.671  14.183
  618TMC3    C3 9153   0.695   2.653  14.243
  618TMC3    C4 9154   0.587   2.909  14.223
  618TMC3    C5 9155   0.721   2.889  14.253
  618TMC3    C6 9156   0.768   2.759  14.281
  618TMC3     C 9157   0.378   2.816  14.154
  618TMC3     O 9158   0.299   2.888  14.210
  618TMC3     H 9159   0.522   2.584  14.145
  618TMC3    H1 9160   0.543   3.008  14.218
  618TMC3    H2 9161   0.867   2.741  14.321
  618TMC3    C7 9162   0.798   3.000  14.304
  618TMC3    C8 9163   0.751   2.520  14.235
  618TMC3    O1 9164   0.736   3.069  14.382
  618TMC3    O2 9165   0.672   2.431  14.227
  619MPD2     C 9166   1.575   3.996  14.066
  619MPD2    C1 9167   1.546   4.088  13.963
  619MPD2    C2 9168   1.446   4.047  13.878
  619MPD2    C3 9169   1.367   3.932  13.889
  619MPD2    C4 9170   1.396   3.850  13.998
  619MPD2    C5 9171   1.504   3.881  14.079
  619MPD2     H 9172   1.428   4.126  13.805
  619MPD2    H1 9173   1.349   3.753  14.000
  619MPD2    H2 9174   1.657   4.009  14.136
  619MPD2    H3 9175   1.516   3.806  14.157
  619MPD2     N 9176   1.263   3.898  13.801
  619MPD2    H5 9177   1.203   3.822  13.830
  619MPD2    N1 9178   1.617   4.205  13.925
  619MPD2    H7 9179   1.606   4.240  13.831
  620TMC3    C1 9180   1.754   4.393  13.949
  620TMC3    C2 9181   1.717   4.442  13.823
  620TMC3    C3 9182   1.726   4.573  13.789
  620TMC3    C4 9183   1.791   4.481  14.044
  620TMC3    C5 9184   1.791   4.611  14.011
  620TMC3    C6 9185   1.760   4.661  13.886
  620TMC3     C 9186   1.709   4.265  14.004
  620TMC3     O 9187   1.738   4.226  14.114
  620TMC3     H 9188   1.666   4.371  13.759
  620TMC3    H1 9189   1.813   4.442  14.143
  620TMC3    H2 9190   1.756   4.769  13.879
  620TMC3    C7 9191   1.866   4.695  14.104
  620TMC3    C8 9192   1.623   4.613  13.701
  620TMC3    O1 9193   1.965   4.648  14.153
  620TMC3    O2 9194   1.539   4.692  13.746
  621MPD2     C 9195   1.778   4.264  10.690
  621MPD2    C1 9196   1.687   4.255  10.589
  621MPD2    C2 9197   1.642   4.370  10.523
  621MPD2    C3 9198   1.692   4.493  10.557
  621MPD2    C4 9199   1.785   4.503  10.655
  621MPD2    C5 9200   1.819   4.392  10.719
  621MPD2     H 9201   1.561   4.375  10.452
  621MPD2    H1 9202   1.829   4.594  10.694
  621MPD2    H2 9203   1.825   4.180  10.739
  621MPD2    H3 9204   1.893   4.403  10.798
  621MPD2     N 9205   1.648   4.609  10.479
  621MPD2    H5 9206   1.598   4.589  10.393
  621MPD2    N1 9207   1.638   4.132  10.544
  621MPD2    H7 9208   1.579   4.138  10.462
  622TMC3    C1 9209   1.595   3.904  10.522
  622TMC3    C2 9210   1.516   3.832  10.608
  622TMC3    C3 9211   1.418   3.746  10.558
  622TMC3    C4 9212   1.572   3.910  10.388
  622TMC3    C5 9213   1.490   3.815  10.339
  622TMC3    C6 9214   1.420   3.732  10.424
  622TMC3     C 9215   1.669   4.008  10.593
  622TMC3     O 9216   1.743   3.976  10.685
  622TMC3     H 9217   1.524   3.850  10.715
  622TMC3    H1 9218   1.625   3.978  10.322
  622TMC3    H2 9219   1.335   3.688  10.373
  622TMC3    C7 9220   1.490   3.778  10.200
  622TMC3    C8 9221   1.288   3.796  10.586
  622TMC3    O1 9222   1.439   3.679  10.158
  622TMC3    O2 9223   1.190   3.726  10.561
  623MPD2     C 9224   0.452   4.460  15.750
  623MPD2    C1 9225   0.366   4.445  15.856
  623MPD2    C2 9226   0.430   4.438  15.981
  623MPD2    C3 9227   0.568   4.466  15.983
  623MPD2    C4 9228   0.649   4.479  15.873
  623MPD2    C5 9229   0.588   4.475  15.760
  623MPD2     H 9230   0.375   4.436  16.074
  623MPD2    H1 9231   0.758   4.479  15.875
  623MPD2    H2 9232   0.407   4.475  15.652
  623MPD2    H3 9233   0.649   4.476  15.671
  623MPD2     N 9234   0.622   4.490  16.116
  623MPD2    H5 9235   0.562   4.467  16.195
  623MPD2    N1 9236   0.223   4.448  15.846
  623MPD2    H7 9237   0.183   4.488  15.762
  624TMC3    C1 9238   0.868   4.667  16.464
  624TMC3    C2 9239   0.760   4.655  16.548
  624TMC3    C3 9240   0.633   4.626  16.494
  624TMC3    C4 9241   0.857   4.629  16.335
  624TMC3    C5 9242   0.740   4.595  16.280
  624TMC3    C6 9243   0.629   4.581  16.364
  624TMC3     C 9244   0.995   4.656  16.524
  624TMC3     O 9245   1.088   4.674  16.443
  624TMC3     H 9246   0.767   4.683  16.653
  624TMC3    H1 9247   0.945   4.638  16.271
  624TMC3    H2 9248   0.531   4.552  16.329
  624TMC3    C7 9249   0.741   4.548  16.149
  624TMC3    C8 9250   0.514   4.615  16.579
  624TMC3    O1 9251   0.841   4.556  16.081
  624TMC3    O2 9252   0.417   4.548  16.541
  625MPD2     C 9253   1.199   1.097  18.955
  625MPD2    C1 9254   1.240   1.223  18.976
  625MPD2    C2 9255   1.350   1.245  19.060
  625MPD2    C3 9256   1.420   1.135  19.105
  625MPD2    C4 9257   1.383   1.010  19.075
  625MPD2    C5 9258   1.269   0.990  18.996
  625MPD2     H 9259   1.385   1.348  19.057
  625MPD2    H1 9260   1.439   0.922  19.105
  625MPD2    H2 9261   1.116   1.076  18.889
  625MPD2    H3 9262   1.240   0.888  18.972
  625MPD2     N 9263   1.539   1.165  19.179
  625MPD2    H5 9264   1.551   1.265  19.195
  625MPD2    N1 9265   1.183   1.336  18.912
  625MPD2    H7 9266   1.204   1.424  18.957
  626TMC3    C1 9267   1.065   1.467  18.752
  626TMC3    C2 9268   0.980   1.486  18.649
  626TMC3    C3 9269   0.951   1.612  18.609
  626TMC3    C4 9270   1.147   1.570  18.794
  626TMC3    C5 9271   1.131   1.692  18.744
  626TMC3    C6 9272   1.028   1.724  18.653
  626TMC3     C 9273   1.097   1.334  18.805
  626TMC3     O 9274   1.036   1.242  18.754
  626TMC3     H 9275   0.940   1.404  18.590
  626TMC3    H1 9276   1.214   1.562  18.880
  626TMC3    H2 9277   1.036   1.819  18.603
  626TMC3    C7 9278   1.185   1.794  18.826
  626TMC3    C8 9279   0.870   1.643  18.492
  626TMC3    O1 9280   1.292   1.785  18.885
  626TMC3    O2 9281   0.887   1.759  18.441
  627MPD2     C 9282   4.147   1.574  14.566
  627MPD2    C1 9283   4.215   1.499  14.658
  627MPD2    C2 9284   4.177   1.368  14.670
  627MPD2    C3 9285   4.066   1.310  14.598
  627MPD2    C4 9286   3.996   1.396  14.510
  627MPD2    C5 9287   4.041   1.525  14.496
  627MPD2     H 9288   4.235   1.317  14.746
  627MPD2    H1 9289   3.914   1.360  14.449
  627MPD2    H2 9290   4.180   1.677  14.558
  627MPD2    H3 9291   3.984   1.595  14.436
  627MPD2     N 9292   4.027   1.174  14.626
  627MPD2    H5 9293   4.064   1.140  14.714
  627MPD2    N1 9294   4.330   1.545  14.739
  627MPD2    H7 9295   4.378   1.476  14.795
  628TMC3    C1 9296   4.498   1.675  14.824
  628TMC3    C2 9297   4.599   1.585  14.800
  628TMC3    C3 9298   4.725   1.615  14.847
  628TMC3    C4 9299   4.525   1.800  14.879
  628TMC3    C5 9300   4.650   1.820  14.921
  628TMC3    C6 9301   4.749   1.735  14.908
  628TMC3     C 9302   4.373   1.675  14.749
  628TMC3     O 9303   4.321   1.778  14.719
  628TMC3     H 9304   4.586   1.499  14.735
  628TMC3    H1 9305   4.448   1.872  14.900
  628TMC3    H2 9306   0.047   1.767  14.923
  628TMC3    C7 9307   4.681   1.959  14.949
  628TMC3    C8 9308   0.035   1.557  14.775
  628TMC3    O1 9309   4.770   1.977  15.033
  628TMC3    O2 9310   0.020   1.548  14.653
  629MPD2     C 9311   2.712   0.350  16.395
  629MPD2    C1 9312   2.768   0.228  16.432
  629MPD2    C2 9313   2.686   0.110  16.435
  629MPD2    C3 9314   2.549   0.125  16.416
  629MPD2    C4 9315   2.502   0.251  16.384
  629MPD2    C5 9316   2.582   0.366  16.367
  629MPD2     H 9317   2.729   0.012  16.452
  629MPD2    H1 9318   2.394   0.263  16.377
  629MPD2    H2 9319   2.767   0.443  16.389
  629MPD2    H3 9320   2.548   0.462  16.330
  629MPD2     N 9321   2.475   0.010  16.404
  629MPD2    H5 9322   2.520   4.723  16.404
  629MPD2    N1 9323   2.905   0.221  16.454
  629MPD2    H7 9324   2.957   0.306  16.433
  630TMC3    C1 9325   3.106   0.141  16.548
  630TMC3    C2 9326   3.171   0.245  16.483
  630TMC3    C3 9327   3.294   0.281  16.534
  630TMC3    C4 9328   3.163   0.082  16.660
  630TMC3    C5 9329   3.284   0.115  16.704
  630TMC3    C6 9330   3.352   0.216  16.637
  630TMC3     C 9331   2.963   0.122  16.528
  630TMC3     O 9332   2.913   0.028  16.586
  630TMC3     H 9333   3.127   0.292  16.396
  630TMC3    H1 9334   3.113   4.800  16.702
  630TMC3    H2 9335   3.455   0.244  16.658
  630TMC3    C7 9336   3.328   0.056  16.824
  630TMC3    C8 9337   3.350   0.419  16.514
  630TMC3    O1 9338   3.280   4.753  16.859
  630TMC3    O2 9339   3.449   0.448  16.576
  631MPD2     C 9340   0.810   0.020  15.585
  631MPD2    C1 9341   0.895   0.104  15.522
  631MPD2    C2 9342   1.010   0.051  15.465
  631MPD2    C3 9343   1.041   4.726  15.472
  631MPD2    C4 9344   0.948   4.633  15.522
  631MPD2    C5 9345   0.837   4.686  15.593
  631MPD2     H 9346   1.095   0.114  15.439
  631MPD2    H1 9347   0.974   4.528  15.524
  631MPD2    H2 9348   0.727   0.058  15.643
  631MPD2    H3 9349   0.781   4.619  15.657
  631MPD2     N 9350   1.173   4.692  15.430
  631MPD2    H5 9351   1.227   4.766  15.388
  631MPD2    N1 9352   0.865   0.240  15.518
  631MPD2    H7 9353   0.788   0.277  15.574
  632TMC3    C1 9354   0.884   0.469  15.478
  632TMC3    C2 9355   0.750   0.483  15.468
  632TMC3    C3 9356   0.702   0.611  15.452
  632TMC3    C4 9357   0.972   0.571  15.458
  632TMC3    C5 9358   0.922   0.688  15.417
  632TMC3    C6 9359   0.789   0.715  15.419
  632TMC3     C 9360   0.937   0.333  15.459
  632TMC3     O 9361   1.032   0.318  15.381
  632TMC3     H 9362   0.676   0.406  15.490
  632TMC3    H1 9363   1.076   0.541  15.449
  632TMC3    H2 9364   0.750   0.813  15.397
  632TMC3    C7 9365   1.005   0.774  15.333
  632TMC3    C8 9366   0.562   0.643  15.494
  632TMC3    O1 9367   0.950   0.847  15.254
  632TMC3    O2 9368   0.491   0.548  15.477
  633MPD2     C 9369   0.742   2.812  17.479
  633MPD2    C1 9370   0.767   2.747  17.359
  633MPD2    C2 9371   0.758   2.609  17.359
  633MPD2    C3 9372   0.736   2.535  17.474
  633MPD2    C4 9373   0.712   2.602  17.586
  633MPD2    C5 9374   0.721   2.739  17.586
  633MPD2     H 9375   0.762   2.559  17.263
  633MPD2    H1 9376   0.692   2.555  17.681
  633MPD2    H2 9377   0.762   2.919  17.485
  633MPD2    H3 9378   0.702   2.801  17.672
  633MPD2     N 9379   0.741   2.393  17.487
  633MPD2    H5 9380   0.717   2.366  17.582
  633MPD2    N1 9381   0.805   2.803  17.236
  633MPD2    H7 9382   0.839   2.745  17.160
  634TMC3    C1 9383   0.871   2.973  17.096
  634TMC3    C2 9384   0.900   2.881  16.994
  634TMC3    C3 9385   0.954   2.922  16.874
  634TMC3    C4 9386   0.872   3.100  17.062
  634TMC3    C5 9387   0.914   3.142  16.935
  634TMC3    C6 9388   0.968   3.056  16.842
  634TMC3     C 9389   0.829   2.937  17.229
  634TMC3     O 9390   0.809   3.025  17.306
  634TMC3     H 9391   0.895   2.773  17.001
  634TMC3    H1 9392   0.853   3.170  17.142
  634TMC3    H2 9393   1.020   3.101  16.759
  634TMC3    C7 9394   0.892   3.277  16.900
  634TMC3    C8 9395   1.042   2.829  16.801
  634TMC3    O1 9396   0.960   3.320  16.802
  634TMC3    O2 9397   1.080   2.732  16.866
  635TMC3    C1 9398   0.905   4.313  17.882
  635TMC3    C2 9399   0.922   4.182  17.855
  635TMC3    C3 9400   0.821   4.100  17.874
  635TMC3    C4 9401   0.787   4.364  17.925
  635TMC3    C5 9402   0.681   4.281  17.926
  635TMC3    C6 9403   0.698   4.148  17.894
  635TMC3     C 9404   1.026   4.396  17.899
  635TMC3     O 9405   1.022   4.468  17.994
  635TMC3     H 9406   1.017   4.136  17.828
  635TMC3    H1 9407   0.774   4.470  17.940
  635TMC3    H2 9408   0.611   4.083  17.893
  635TMC3    C7 9409   0.554   4.340  17.915
  635TMC3    C8 9410   0.838   3.953  17.852
  635TMC3    O1 9411   0.471   4.303  17.830
  635TMC3    O2 9412   0.927   3.914  17.775
  636MPD2     C 9413   1.805   3.357  16.484
  636MPD2    C1 9414   1.918   3.401  16.549
  636MPD2    C2 9415   2.009   3.304  16.590
  636MPD2    C3 9416   1.992   3.168  16.548
  636MPD2    C4 9417   1.874   3.130  16.478
  636MPD2    C5 9418   1.787   3.227  16.454
  636MPD2     H 9419   2.102   3.326  16.641
  636MPD2    H1 9420   1.860   3.026  16.450
  636MPD2    H2 9421   1.739   3.435  16.447
  636MPD2    H3 9422   1.695   3.200  16.402
  636MPD2     N 9423   2.087   3.076  16.599
  636MPD2    H5 9424   2.154   3.113  16.666
  636MPD2    N1 9425   1.951   3.534  16.594
  636MPD2    H7 9426   2.034   3.550  16.651
  637TMC3    C1 9427   2.203   2.878  16.631
  637TMC3    C2 9428   2.269   2.952  16.725
  637TMC3    C3 9429   2.400   2.926  16.745
  637TMC3    C4 9430   2.264   2.778  16.560
  637TMC3    C5 9431   2.393   2.753  16.586
  637TMC3    C6 9432   2.464   2.818  16.685
  637TMC3     C 9433   2.097   2.940  16.559
  637TMC3     O 9434   2.043   2.876  16.470
  637TMC3     H 9435   2.226   3.029  16.787
  637TMC3    H1 9436   2.204   2.720  16.491
  637TMC3    H2 9437   2.572   2.812  16.689
  637TMC3    C7 9438   2.473   2.720  16.468
  637TMC3    C8 9439   2.467   3.051  16.721
  637TMC3    O1 9440   2.589   2.752  16.467
  637TMC3    O2 9441   2.399   3.127  16.648
  638MPD2     C 9442   1.823   2.153  15.356
  638MPD2    C1 9443   1.793   2.047  15.274
  638MPD2    C2 9444   1.746   1.937  15.343
  638MPD2    C3 9445   1.726   1.936  15.476
  638MPD2    C4 9446   1.755   2.043  15.550
  638MPD2    C5 9447   1.804   2.155  15.492
  638MPD2     H 9448   1.714   1.848  15.290
  638MPD2    H1 9449   1.726   2.048  15.654
  638MPD2    H2 9450   1.856   2.246  15.313
  638MPD2    H3 9451   1.832   2.242  15.551
  638MPD2     N 9452   1.667   1.819  15.534
  638MPD2    H5 9453   1.665   1.737  15.474
  638MPD2    N1 9454   1.824   2.048  15.138
  638MPD2    H7 9455   1.863   2.133  15.100
  639TMC3    C1 9456   1.620   1.643  15.667
  639TMC3    C2 9457   1.564   1.584  15.558
  639TMC3    C3 9458   1.589   1.451  15.534
  639TMC3    C4 9459   1.693   1.564  15.751
  639TMC3    C5 9460   1.709   1.428  15.725
  639TMC3    C6 9461   1.672   1.380  15.605
  639TMC3     C 9462   1.646   1.789  15.662
  639TMC3     O 9463   1.680   1.858  15.761
  639TMC3     H 9464   1.491   1.640  15.502
  639TMC3    H1 9465   1.747   1.599  15.839
  639TMC3    H2 9466   1.681   1.273  15.588
  639TMC3    C7 9467   1.823   1.359  15.782
  639TMC3    C8 9468   1.525   1.383  15.428
  639TMC3    O1 9469   1.821   1.345  15.902
  639TMC3    O2 9470   1.568   1.275  15.390
  640MPD2     C 9471   2.784   1.258  10.296
  640MPD2    C1 9472   2.682   1.219  10.211
  640MPD2    C2 9473   2.553   1.258  10.241
  640MPD2    C3 9474   2.528   1.341  10.353
  640MPD2    C4 9475   2.628   1.379  10.435
  640MPD2    C5 9476   2.759   1.338  10.404
  640MPD2     H 9477   2.475   1.229  10.173
  640MPD2    H1 9478   2.616   1.436  10.526
  640MPD2    H2 9479   2.885   1.231  10.269
  640MPD2    H3 9480   2.848   1.369  10.457
  640MPD2     N 9481   2.398   1.385  10.392
  640MPD2    H5 9482   2.393   1.431  10.483
  640MPD2    N1 9483   2.711   1.144  10.094
  640MPD2    H7 9484   2.802   1.099  10.095
  641TMC3    C1 9485   2.654   1.021   9.896
  641TMC3    C2 9486   2.757   0.929   9.918
  641TMC3    C3 9487   2.785   0.838   9.814
  641TMC3    C4 9488   2.577   1.012   9.785
  641TMC3    C5 9489   2.600   0.917   9.687
  641TMC3    C6 9490   2.710   0.832   9.698
  641TMC3     C 9491   2.630   1.137   9.984
  641TMC3     O 9492   2.537   1.209   9.954
  641TMC3     H 9493   2.814   0.934  10.010
  641TMC3    H1 9494   2.499   1.086   9.770
  641TMC3    H2 9495   2.725   0.757   9.621
  641TMC3    C7 9496   2.500   0.915   9.584
  641TMC3    C8 9497   2.869   0.724   9.839
  641TMC3    O1 9498   2.415   1.002   9.583
  641TMC3    O2 9499   2.862   0.634   9.756
  642TMC3    C1 9500   3.456   1.992  12.769
  642TMC3    C2 9501   3.583   2.020  12.812
  642TMC3    C3 9502   3.630   1.914  12.881
  642TMC3    C4 9503   3.379   1.875  12.793
  642TMC3    C5 9504   3.446   1.774  12.851
  642TMC3    C6 9505   3.566   1.792  12.911
  642TMC3     C 9506   3.396   2.113  12.712
  642TMC3     O 9507   3.458   2.187  12.636
  642TMC3     H 9508   3.641   2.107  12.784
  642TMC3    H1 9509   3.294   1.867  12.726
  642TMC3    H2 9510   3.618   1.714  12.966
  642TMC3    C7 9511   3.393   1.645  12.812
  642TMC3    C8 9512   3.759   1.925  12.934
  642TMC3    O1 9513   3.323   1.636  12.712
  642TMC3    O2 9514   3.781   1.856  13.034
  643TMC3    C1 9515   2.919   1.214  18.259
  643TMC3    C2 9516   2.820   1.247  18.168
  643TMC3    C3 9517   2.745   1.148  18.108
  643TMC3    C4 9518   2.932   1.086  18.307
  643TMC3    C5 9519   2.854   0.988  18.245
  643TMC3    C6 9520   2.767   1.019  18.138
  643TMC3     C 9521   2.986   1.327  18.331
  643TMC3     O 9522   2.978   1.434  18.280
  643TMC3     H 9523   2.805   1.354  18.154
  643TMC3    H1 9524   3.011   1.057  18.375
  643TMC3    H2 9525   2.696   0.944  18.106
  643TMC3    C7 9526   2.879   0.855  18.290
  643TMC3    C8 9527   2.687   1.167  17.978
  643TMC3    O1 9528   2.921   0.835  18.403
  643TMC3    O2 9529   2.614   1.086  17.921
  644MPD2     C 9530   2.792   1.646   9.868
  644MPD2    C1 9531   2.704   1.566   9.805
  644MPD2    C2 9532   2.569   1.591   9.787
  644MPD2    C3 9533   2.528   1.721   9.826
  644MPD2    C4 9534   2.623   1.809   9.879
  644MPD2    C5 9535   2.748   1.771   9.908
  644MPD2     H 9536   2.500   1.520   9.743
  644MPD2    H1 9537   2.593   1.908   9.910
  644MPD2    H2 9538   2.892   1.612   9.891
  644MPD2    H3 9539   2.822   1.834   9.955
  644MPD2     N 9540   2.396   1.746   9.802
  644MPD2    H5 9541   2.335   1.672   9.768
  644MPD2    N1 9542   2.767   1.446   9.757
  644MPD2    H7 9543   2.862   1.431   9.791
  645TMC3    C1 9544   2.206   1.883   9.759
  645TMC3    C2 9545   2.138   1.994   9.785
  645TMC3    C3 9546   2.024   2.018   9.711
  645TMC3    C4 9547   2.167   1.789   9.665
  645TMC3    C5 9548   2.054   1.818   9.597
  645TMC3    C6 9549   1.985   1.937   9.612
  645TMC3     C 9550   2.343   1.872   9.810
  645TMC3     O 9551   2.391   1.979   9.843
  645TMC3     H 9552   2.181   2.063   9.857
  645TMC3    H1 9553   2.226   1.704   9.631
  645TMC3    H2 9554   1.899   1.956   9.548
  645TMC3    C7 9555   2.019   1.746   9.478
  645TMC3    C8 9556   1.982   2.159   9.716
  645TMC3    O1 9557   1.962   1.810   9.389
  645TMC3    O2 9558   2.068   2.243   9.733
  646MPD2     C 9559   1.929   0.589  14.923
  646MPD2    C1 9560   1.879   0.648  15.037
  646MPD2    C2 9561   1.776   0.747  15.031
  646MPD2    C3 9562   1.722   0.781  14.907
  646MPD2    C4 9563   1.770   0.709  14.799
  646MPD2    C5 9564   1.873   0.622  14.806
  646MPD2     H 9565   1.735   0.790  15.122
  646MPD2    H1 9566   1.733   0.725  14.698
  646MPD2    H2 9567   2.010   0.517  14.923
  646MPD2    H3 9568   1.920   0.577  14.719
  646MPD2     N 9569   1.621   0.882  14.889
  646MPD2    H5 9570   1.581   0.929  14.969
  646MPD2    N1 9571   1.952   0.613  15.151
  646MPD2    H7 9572   2.042   0.566  15.147
  647TMC3    C1 9573   2.034   0.614  15.375
  647TMC3    C2 9574   2.005   0.613  15.511
  647TMC3    C3 9575   2.108   0.579  15.594
  647TMC3    C4 9576   2.167   0.591  15.327
  647TMC3    C5 9577   2.274   0.592  15.422
  647TMC3    C6 9578   2.241   0.588  15.555
  647TMC3     C 9579   1.923   0.644  15.284
  647TMC3     O 9580   1.816   0.695  15.323
  647TMC3     H 9581   1.902   0.617  15.545
  647TMC3    H1 9582   2.188   0.595  15.220
  647TMC3    H2 9583   2.314   0.567  15.632
  647TMC3    C7 9584   2.396   0.531  15.386
  647TMC3    C8 9585   2.099   0.455  15.664
  647TMC3    O1 9586   2.487   0.550  15.462
  647TMC3    O2 9587   2.197   0.385  15.669
  648TMC3    C1 9588   1.418   3.053  16.504
  648TMC3    C2 9589   1.497   2.940  16.508
  648TMC3    C3 9590   1.545   2.899  16.391
  648TMC3    C4 9591   1.393   3.116  16.389
  648TMC3    C5 9592   1.422   3.068  16.267
  648TMC3    C6 9593   1.502   2.952  16.270
  648TMC3     C 9594   1.392   3.122  16.623
  648TMC3     O 9595   1.388   3.245  16.619
  648TMC3     H 9596   1.540   2.906  16.601
  648TMC3    H1 9597   1.322   3.198  16.391
  648TMC3    H2 9598   1.524   2.895  16.181
  648TMC3    C7 9599   1.384   3.129  16.143
  648TMC3    C8 9600   1.632   2.785  16.408
  648TMC3    O1 9601   1.457   3.118  16.043
  648TMC3    O2 9602   1.648   2.746  16.523
  649TMC3    C1 9603   0.311   4.385  12.751
  649TMC3    C2 9604   0.442   4.425  12.758
  649TMC3    C3 9605   0.513   4.406  12.871
  649TMC3    C4 9606   0.245   4.324  12.855
  649TMC3    C5 9607   0.323   4.307  12.971
  649TMC3    C6 9608   0.460   4.338  12.975
  649TMC3     C 9609   0.227   4.399  12.637
  649TMC3     O 9610   0.108   4.405  12.661
  649TMC3     H 9611   0.490   4.468  12.671
  649TMC3    H1 9612   0.146   4.281  12.857
  649TMC3    H2 9613   0.524   4.314  13.059
  649TMC3    C7 9614   0.253   4.230  13.074
  649TMC3    C8 9615   0.654   4.401  12.865
  649TMC3    O1 9616   0.128   4.232  13.078
  649TMC3    O2 9617   0.717   4.325  12.940
  650TMC3    C1 9618   3.050   1.225  13.074
  650TMC3    C2 9619   3.008   1.344  13.126
  650TMC3    C3 9620   2.894   1.400  13.067
  650TMC3    C4 9621   2.987   1.164  12.968
  650TMC3    C5 9622   2.878   1.226  12.911
  650TMC3    C6 9623   2.828   1.347  12.954
  650TMC3     C 9624   3.169   1.162  13.141
  650TMC3     O 9625   3.230   1.238  13.218
  650TMC3     H 9626   3.033   1.376  13.227
  650TMC3    H1 9627   3.028   1.075  12.921
  650TMC3    H2 9628   2.739   1.394  12.914
  650TMC3    C7 9629   2.868   1.199  12.770
  650TMC3    C8 9630   2.837   1.515  13.123
  650TMC3    O1 9631   2.907   1.090  12.730
  650TMC3    O2 9632   2.911   1.602  13.160
  651MPD2     C 9633   1.541   3.367  10.786
  651MPD2    C1 9634   1.507   3.493  10.835
  651MPD2    C2 9635   1.614   3.563  10.884
  651MPD2    C3 9636   1.744   3.524  10.872
  651MPD2    C4 9637   1.769   3.403  10.812
  651MPD2    C5 9638   1.669   3.326  10.771
  651MPD2     H 9639   1.591   3.660  10.927
  651MPD2    H1 9640   1.870   3.366  10.802
  651MPD2    H2 9641   1.461   3.306  10.745
  651MPD2    H3 9642   1.689   3.233  10.718
  651MPD2     N 9643   1.840   3.610  10.931
  651MPD2    H5 9644   1.801   3.690  10.980
  651MPD2    N1 9645   1.371   3.541  10.862
  651MPD2    H7 9646   1.368   3.632  10.907
  652TMC3    C1 9647   2.255   3.785  11.050
  652TMC3    C2 9648   2.181   3.673  11.025
  652TMC3    C3 9649   2.051   3.695  10.986
  652TMC3    C4 9650   2.218   3.914  11.034
  652TMC3    C5 9651   2.089   3.928  10.990
  652TMC3    C6 9652   2.007   3.820  10.972
  652TMC3     C 9653   2.378   3.747  11.123
  652TMC3     O 9654   2.366   3.668  11.215
  652TMC3     H 9655   2.223   3.574  11.043
  652TMC3    H1 9656   2.279   4.002  11.051
  652TMC3    H2 9657   1.916   3.838  10.915
  652TMC3    C7 9658   2.022   4.051  11.030
  652TMC3    C8 9659   1.977   3.589  10.920
  652TMC3    O1 9660   1.900   4.045  11.034
  652TMC3    O2 9661   2.046   3.492  10.885
  653MPD2     C 9662   0.394   3.200  17.951
  653MPD2    C1 9663   0.340   3.271  17.855
  653MPD2    C2 9664   0.330   3.206  17.731
  653MPD2    C3 9665   0.348   3.070  17.716
  653MPD2    C4 9666   0.388   2.999  17.825
  653MPD2    C5 9667   0.415   3.061  17.935
  653MPD2     H 9668   0.290   3.254  17.642
  653MPD2    H1 9669   0.389   2.891  17.829
  653MPD2    H2 9670   0.431   3.248  18.041
  653MPD2    H3 9671   0.439   3.006  18.026
  653MPD2     N 9672   0.325   3.013  17.589
  653MPD2    H5 9673   0.303   3.066  17.505
  653MPD2    N1 9674   0.295   3.404  17.869
  653MPD2    H7 9675   0.288   3.445  17.776
  654TMC3    C1 9676   0.295   2.824  17.439
  654TMC3    C2 9677   0.202   2.890  17.363
  654TMC3    C3 9678   0.159   2.828  17.244
  654TMC3    C4 9679   0.348   2.701  17.407
  654TMC3    C5 9680   0.318   2.662  17.280
  654TMC3    C6 9681   0.227   2.719  17.198
  654TMC3     C 9682   0.334   2.874  17.572
  654TMC3     O 9683   0.368   2.782  17.642
  654TMC3     H 9684   0.139   2.971  17.398
  654TMC3    H1 9685   0.424   2.648  17.465
  654TMC3    H2 9686   0.209   2.674  17.101
  654TMC3    C7 9687   0.385   2.546  17.224
  654TMC3    C8 9688   0.049   2.880  17.169
  654TMC3    O1 9689   0.410   2.547  17.106
  654TMC3    O2 9690   0.006   2.994  17.191
  655MPD2     C 9691   1.949   3.085  15.854
  655MPD2    C1 9692   1.856   3.157  15.783
  655MPD2    C2 9693   1.827   3.125  15.653
  655MPD2    C3 9694   1.880   3.009  15.598
  655MPD2    C4 9695   1.971   2.941  15.674
  655MPD2    C5 9696   2.014   2.984  15.791
  655MPD2     H 9697   1.749   3.177  15.599
  655MPD2    H1 9698   2.025   2.851  15.646
  655MPD2    H2 9699   1.979   3.100  15.957
  655MPD2    H3 9700   2.096   2.938  15.846
  655MPD2     N 9701   1.842   2.949  15.472
  655MPD2    H5 9702   1.872   2.853  15.459
  655MPD2    N1 9703   1.774   3.258  15.852
  655MPD2    H7 9704   1.704   3.295  15.789
  656TMC3    C1 9705   1.693   3.411  16.014
  656TMC3    C2 9706   1.644   3.421  16.144
  656TMC3    C3 9707   1.579   3.538  16.180
  656TMC3    C4 9708   1.678   3.504  15.918
  656TMC3    C5 9709   1.613   3.618  15.964
  656TMC3    C6 9710   1.563   3.637  16.091
  656TMC3     C 9711   1.773   3.294  15.986
  656TMC3     O 9712   1.837   3.246  16.076
  656TMC3     H 9713   1.653   3.342  16.217
  656TMC3    H1 9714   1.728   3.502  15.822
  656TMC3    H2 9715   1.545   3.738  16.127
  656TMC3    C7 9716   1.559   3.709  15.862
  656TMC3    C8 9717   1.478   3.516  16.285
  656TMC3    O1 9718   1.627   3.714  15.760
  656TMC3    O2 9719   1.483   3.404  16.337
  657TMC3    C1 9720   0.635   2.719  15.245
  657TMC3    C2 9721   0.728   2.784  15.318
  657TMC3    C3 9722   0.731   2.922  15.305
  657TMC3    C4 9723   0.552   2.787  15.163
  657TMC3    C5 9724   0.563   2.922  15.152
  657TMC3    C6 9725   0.655   2.997  15.214
  657TMC3     C 9726   0.617   2.576  15.253
  657TMC3     O 9727   0.509   2.531  15.208
  657TMC3     H 9728   0.766   2.722  15.399
  657TMC3    H1 9729   0.483   2.727  15.106
  657TMC3    H2 9730   0.656   3.106  15.210
  657TMC3    C7 9731   0.473   2.982  15.061
  657TMC3    C8 9732   0.784   2.998  15.418
  657TMC3    O1 9733   0.367   2.923  15.047
  657TMC3    O2 9734   0.770   3.118  15.411
  658MPD2     C 9735   2.269   2.734  15.004
  658MPD2    C1 9736   2.141   2.724  14.954
  658MPD2    C2 9737   2.138   2.684  14.819
  658MPD2    C3 9738   2.250   2.645  14.746
  658MPD2    C4 9739   2.378   2.654  14.804
  658MPD2    C5 9740   2.383   2.690  14.937
  658MPD2     H 9741   2.045   2.687  14.763
  658MPD2    H1 9742   2.469   2.628  14.751
  658MPD2    H2 9743   2.282   2.742  15.111
  658MPD2    H3 9744   2.478   2.678  14.988
  658MPD2     N 9745   2.233   2.614  14.610
  658MPD2    H5 9746   2.140   2.618  14.571
  658MPD2    N1 9747   2.031   2.754  15.037
  658MPD2    H7 9748   2.057   2.788  15.129
  659TMC3    C1 9749   1.802   2.784  15.091
  659TMC3    C2 9750   1.830   2.849  15.210
  659TMC3    C3 9751   1.735   2.929  15.264
  659TMC3    C4 9752   1.677   2.789  15.039
  659TMC3    C5 9753   1.580   2.869  15.103
  659TMC3    C6 9754   1.607   2.942  15.213
  659TMC3     C 9755   1.896   2.741  14.995
  659TMC3     O 9756   1.854   2.673  14.907
  659TMC3     H 9757   1.932   2.845  15.246
  659TMC3    H1 9758   1.653   2.758  14.938
  659TMC3    H2 9759   1.532   3.010  15.251
  659TMC3    C7 9760   1.447   2.892  15.038
  659TMC3    C8 9761   1.773   3.015  15.373
  659TMC3    O1 9762   1.384   2.985  15.089
  659TMC3    O2 9763   1.730   3.131  15.373
  660MPD2     C 9764   0.096   1.994  12.834
  660MPD2    C1 9765   4.779   2.049  12.865
  660MPD2    C2 9766   4.719   2.004  12.983
  660MPD2    C3 9767   4.772   1.903  13.058
  660MPD2    C4 9768   0.090   1.857  13.024
  660MPD2    C5 9769   0.153   1.897  12.917
  660MPD2     H 9770   4.618   2.035  13.006
  660MPD2    H1 9771   0.139   1.777  13.080
  660MPD2    H2 9772   0.147   2.014  12.741
  660MPD2    H3 9773   0.246   1.849  12.887
  660MPD2     N 9774   4.703   1.838  13.169
  660MPD2    H5 9775   4.755   1.763  13.215
  660MPD2    N1 9776   4.732   2.154  12.779
  660MPD2    H7 9777   4.777   2.181  12.692
  661TMC3    C1 9778   4.570   2.306  12.690
  661TMC3    C2 9779   4.629   2.313  12.567
  661TMC3    C3 9780   4.592   2.402  12.477
  661TMC3    C4 9781   4.482   2.407  12.727
  661TMC3    C5 9782   4.439   2.491  12.625
  661TMC3    C6 9783   4.497   2.489  12.503
  661TMC3     C 9784   4.616   2.223  12.803
  661TMC3     O 9785   4.557   2.244  12.907
  661TMC3     H 9786   4.704   2.241  12.536
  661TMC3    H1 9787   4.419   2.399  12.815
  661TMC3    H2 9788   4.454   2.545  12.421
  661TMC3    C7 9789   4.292   2.500  12.623
  661TMC3    C8 9790   4.665   2.415  12.353
  661TMC3    O1 9791   4.246   2.554  12.726
  661TMC3    O2 9792   4.733   2.317  12.317
  662MPD2     C 9793   0.189   1.869  17.460
  662MPD2    C1 9794   0.165   1.784  17.569
  662MPD2    C2 9795   0.137   1.832  17.699
  662MPD2    C3 9796   0.112   1.969  17.718
  662MPD2    C4 9797   0.128   2.053  17.602
  662MPD2    C5 9798   0.163   2.000  17.478
  662MPD2     H 9799   0.145   1.765  17.784
  662MPD2    H1 9800   0.115   2.160  17.611
  662MPD2    H2 9801   0.190   1.833  17.358
  662MPD2    H3 9802   0.170   2.067  17.393
  662MPD2     N 9803   0.050   2.018  17.831
  662MPD2    H5 9804   4.803   2.104  17.816
  662MPD2    N1 9805   0.159   1.638  17.559
  662MPD2    H7 9806   0.126   1.590  17.642
  663TMC3    C1 9807   0.119   1.440  17.454
  663TMC3    C2 9808   0.015   1.432  17.543
  663TMC3    C3 9809   4.770   1.307  17.566
  663TMC3    C4 9810   0.167   1.345  17.377
  663TMC3    C5 9811   0.116   1.214  17.407
  663TMC3    C6 9812   0.019   1.197  17.503
  663TMC3     C 9813   0.183   1.565  17.444
  663TMC3     O 9814   0.224   1.603  17.334
  663TMC3     H 9815   4.777   1.508  17.608
  663TMC3    H1 9816   0.237   1.359  17.295
  663TMC3    H2 9817   4.779   1.099  17.514
  663TMC3    C7 9818   0.149   1.108  17.305
  663TMC3    C8 9819   4.650   1.281  17.645
  663TMC3    O1 9820   0.213   1.134  17.203
  663TMC3    O2 9821   4.589   1.177  17.617
  664MPD2     C 9822   2.656   4.348  17.537
  664MPD2    C1 9823   2.718   4.452  17.604
  664MPD2    C2 9824   2.697   4.471  17.739
  664MPD2    C3 9825   2.605   4.391  17.814
  664MPD2    C4 9826   2.555   4.280  17.749
  664MPD2    C5 9827   2.573   4.267  17.612
  664MPD2     H 9828   2.760   4.541  17.793
  664MPD2    H1 9829   2.485   4.208  17.791
  664MPD2    H2 9830   2.677   4.330  17.432
  664MPD2    H3 9831   2.531   4.175  17.571
  664MPD2     N 9832   2.605   4.405  17.952
  664MPD2    H5 9833   2.636   4.495  17.988
  664MPD2    N1 9834   2.801   4.542  17.536
  664MPD2    H7 9835   2.836   4.623  17.585
  665TMC3    C1 9836   2.593   4.348  18.177
  665TMC3    C2 9837   2.542   4.265  18.277
  665TMC3    C3 9838   2.610   4.267  18.395
  665TMC3    C4 9839   2.707   4.425  18.202
  665TMC3    C5 9840   2.757   4.431  18.329
  665TMC3    C6 9841   2.711   4.348  18.424
  665TMC3     C 9842   2.568   4.304  18.041
  665TMC3     O 9843   2.513   4.196  18.019
  665TMC3     H 9844   2.450   4.209  18.267
  665TMC3    H1 9845   2.757   4.479  18.123
  665TMC3    H2 9846   2.756   4.343  18.522
  665TMC3    C7 9847   2.787   4.569  18.365
  665TMC3    C8 9848   2.523   4.255  18.512
  665TMC3    O1 9849   2.819   4.652  18.278
  665TMC3    O2 9850   2.557   4.322  18.611
  666TMC3    C1 9851   1.652   0.037  10.411
  666TMC3    C2 9852   1.635   4.799  10.286
  666TMC3    C3 9853   1.662   0.067  10.182
  666TMC3    C4 9854   1.700   0.162  10.433
  666TMC3    C5 9855   1.722   0.240  10.328
  666TMC3    C6 9856   1.703   0.199  10.197
  666TMC3     C 9857   1.680   4.742  10.512
  666TMC3     O 9858   1.714   4.787  10.617
  666TMC3     H 9859   1.603   4.699  10.261
  666TMC3    H1 9860   1.719   0.199  10.533
  666TMC3    H2 9861   1.722   0.268  10.116
  666TMC3    C7 9862   1.807   0.349  10.358
  666TMC3    C8 9863   1.655   0.006  10.049
  666TMC3    O1 9864   1.808   0.390  10.475
  666TMC3    O2 9865   1.549   4.753  10.025
  667MPD2     C 9866   3.577   4.422  14.982
  667MPD2    C1 9867   3.499   4.499  15.067
  667MPD2    C2 9868   3.373   4.450  15.083
  667MPD2    C3 9869   3.327   4.334  15.028
  667MPD2    C4 9870   3.407   4.264  14.939
  667MPD2    C5 9871   3.530   4.311  14.915
  667MPD2     H 9872   3.309   4.516  15.142
  667MPD2    H1 9873   3.365   4.174  14.894
  667MPD2    H2 9874   3.678   4.456  14.963
  667MPD2    H3 9875   3.582   4.269  14.829
  667MPD2     N 9876   3.197   4.292  15.050
  667MPD2    H5 9877   3.164   4.213  14.994
  667MPD2    N1 9878   3.535   4.630  15.115
  667MPD2    H7 9879   3.469   4.670  15.181
  668TMC3    C1 9880   3.673   4.791  15.199
  668TMC3    C2 9881   3.784   0.069  15.165
  668TMC3    C3 9882   3.885   0.084  15.262
  668TMC3    C4 9883   3.672   4.734  15.322
  668TMC3    C5 9884   3.779   4.739  15.402
  668TMC3    C6 9885   3.878   0.019  15.385
  668TMC3     C 9886   3.647   4.711  15.086
  668TMC3     O 9887   3.741   4.678  15.014
  668TMC3     H 9888   3.778   0.126  15.073
  668TMC3    H1 9889   3.600   4.655  15.341
  668TMC3    H2 9890   3.962   0.028  15.453
  668TMC3    C7 9891   3.764   4.695  15.544
  668TMC3    C8 9892   3.955   0.209  15.258
  668TMC3    O1 9893   3.871   4.646  15.592
  668TMC3    O2 9894   4.011   0.235  15.365
  669TMC3    C1 9895   1.653   4.552  14.936
  669TMC3    C2 9896   1.553   4.539  14.846
  669TMC3    C3 9897   1.573   4.593  14.724
  669TMC3    C4 9898   1.766   4.631  14.910
  669TMC3    C5 9899   1.789   4.666  14.780
  669TMC3    C6 9900   1.678   4.671  14.692
  669TMC3     C 9901   1.639   4.480  15.058
  669TMC3     O 9902   1.523   4.453  15.090
  669TMC3     H 9903   1.456   4.498  14.870
  669TMC3    H1 9904   1.844   4.642  14.985
  669TMC3    H2 9905   1.704   4.690  14.589
  669TMC3    C7 9906   1.889   4.768  14.751
  669TMC3    C8 9907   1.466   4.605  14.645
  669TMC3    O1 9908   1.917   0.040  14.840
  669TMC3    O2 9909   1.376   4.522  14.642
  670MPD2     C 9910   0.320   2.352  13.591
  670MPD2    C1 9911   0.381   2.323  13.708
  670MPD2    C2 9912   0.303   2.302  13.826
  670MPD2    C3 9913   0.165   2.298  13.811
  670MPD2    C4 9914   0.111   2.328  13.683
  670MPD2    C5 9915   0.186   2.360  13.578
  670MPD2     H 9916   0.350   2.275  13.920
  670MPD2    H1 9917   0.004   2.315  13.668
  670MPD2    H2 9918   0.384   2.375  13.506
  670MPD2    H3 9919   0.150   2.397  13.482
  670MPD2     N 9920   0.082   2.279  13.929
  670MPD2    H5 9921   0.137   2.252  14.011
  670MPD2    N1 9922   0.522   2.325  13.729
  670MPD2    H7 9923   0.547   2.303  13.825
  671TMC3    C1 9924   4.708   2.282  14.077
  671TMC3    C2 9925   4.801   2.258  14.179
  671TMC3    C3 9926   4.750   2.178  14.280
  671TMC3    C4 9927   4.580   2.238  14.074
  671TMC3    C5 9928   4.547   2.153  14.176
  671TMC3    C6 9929   4.624   2.124  14.280
  671TMC3     C 9930   4.755   2.306  13.938
  671TMC3     O 9931   4.679   2.356  13.853
  671TMC3     H 9932   0.103   2.278  14.174
  671TMC3    H1 9933   4.525   2.247  13.981
  671TMC3    H2 9934   4.603   2.049  14.356
  671TMC3    C7 9935   4.483   2.040  14.120
  671TMC3    C8 9936   0.046   2.095  14.346
  671TMC3    O1 9937   4.500   2.014  14.000
  671TMC3    O2 9938   0.137   2.060  14.275
  672MPD2     C 9939   0.533   3.324  19.402
  672MPD2    C1 9940   0.605   3.294  19.289
  672MPD2    C2 9941   0.733   3.332  19.270
  672MPD2    C3 9942   0.799   3.407  19.365
  672MPD2    C4 9943   0.728   3.441  19.478
  672MPD2    C5 9944   0.594   3.409  19.495
  672MPD2     H 9945   0.780   3.299  19.178
  672MPD2    H1 9946   0.778   3.495  19.557
  672MPD2    H2 9947   0.430   3.291  19.409
  672MPD2    H3 9948   0.527   3.444  19.573
  672MPD2     N 9949   0.944   3.440  19.372
  672MPD2    H5 9950   0.978   3.511  19.436
  672MPD2    N1 9951   0.569   3.203  19.193
  672MPD2    H7 9952   0.643   3.166  19.134
  673TMC3    C1 9953   0.452   3.034  19.091
  673TMC3    C2 9954   0.571   2.971  19.088
  673TMC3    C3 9955   0.594   2.876  18.988
  673TMC3    C4 9956   0.359   3.040  18.989
  673TMC3    C5 9957   0.381   2.940  18.898
  673TMC3    C6 9958   0.494   2.858  18.897
  673TMC3     C 9959   0.446   3.148  19.183
  673TMC3     O 9960   0.331   3.177  19.219
  673TMC3     H 9961   0.626   2.961  19.181
  673TMC3    H1 9962   0.260   3.082  19.000
  673TMC3    H2 9963   0.488   2.772  18.832
  673TMC3    C7 9964   0.260   2.885  18.847
  673TMC3    C8 9965   0.694   2.771  18.995
  673TMC3    O1 9966   0.229   2.765  18.876
  673TMC3    O2 9967   0.660   2.670  18.936
  674MPD2     C 9968   0.333   2.116  18.148
  674MPD2    C1 9969   0.252   2.107  18.259
  674MPD2    C2 9970   0.191   2.219  18.308
  674MPD2    C3 9971   0.209   2.334  18.241
  674MPD2    C4 9972   0.291   2.342  18.127
  674MPD2    C5 9973   0.353   2.231  18.084
  674MPD2     H 9974   0.123   2.215  18.392
  674MPD2    H1 9975   0.300   2.440  18.083
  674MPD2    H2 9976   0.378   2.027  18.106
  674MPD2    H3 9977   0.420   2.239  17.999
  674MPD2     N 9978   0.159   2.449  18.309
  674MPD2    H5 9979   0.111   2.433  18.397
  674MPD2    N1 9980   0.226   1.981  18.310
  674MPD2    H7 9981   0.245   1.910  18.240
  675TMC3    C1 9982   0.193   2.035  18.555
  675TMC3    C2 9983   0.122   2.001  18.668
  675TMC3    C3 9984   0.139   2.079  18.779
  675TMC3    C4 9985   0.291   2.132  18.562
  675TMC3    C5 9986   0.316   2.190  18.683
  675TMC3    C6 9987   0.235   2.176  18.789
  675TMC3     C 9988   0.162   1.948  18.432
  675TMC3     O 9989   0.104   1.840  18.460
  675TMC3     H 9990   0.041   1.930  18.661
  675TMC3    H1 9991   0.364   2.133  18.482
  675TMC3    H2 9992   0.262   2.223  18.882
  675TMC3    C7 9993   0.390   2.317  18.674
  675TMC3    C8 9994   0.060   2.039  18.888
  675TMC3    O1 9995   0.410   2.372  18.780
  675TMC3    O2 9996   0.022   1.920  18.885
  676MPD2     C 9997   3.455   0.856  11.531
  676MPD2    C1 9998   3.318   0.833  11.524
  676MPD2    C2 9999   3.270   0.734  11.447
  676MPD2    C310000   3.352   0.657  11.367
  676MPD2    C410001   3.490   0.674  11.382
  676MPD2    C510002   3.541   0.781  11.453
  676MPD2     H10003   3.162   0.728  11.435
  676MPD2    H110004   3.558   0.610  11.326
  676MPD2    H210005   3.499   0.935  11.592
  676MPD2    H310006   3.649   0.795  11.458
  676MPD2     N10007   3.306   0.553  11.281
  676MPD2    H510008   3.383   0.504  11.237
  676MPD2    N110009   3.221   0.910  11.586
  676MPD2    H710010   3.129   0.869  11.577
  677TMC3    C110011   3.128   1.089  11.714
  677TMC3    C210012   3.009   1.012  11.717
  677TMC3    C310013   2.899   1.070  11.775
  677TMC3    C410014   3.141   1.207  11.775
  677TMC3    C510015   3.027   1.260  11.832
  677TMC3    C610016   2.902   1.198  11.826
  677TMC3     C10017   3.240   1.037  11.639
  677TMC3     O10018   3.339   1.103  11.617
  677TMC3     H10019   2.985   0.918  11.669
  677TMC3    H110020   3.237   1.256  11.778
  677TMC3    H210021   2.821   1.259  11.864
  677TMC3    C710022   3.034   1.383  11.906
  677TMC3    C810023   2.822   0.968  11.854
  677TMC3    O110024   2.940   1.403  11.982
  677TMC3    O210025   2.858   0.852  11.856
  678MPD2     C10026   4.336   0.646  19.175
  678MPD2    C110027   4.351   0.754  19.095
  678MPD2    C210028   4.249   0.777  19.007
  678MPD2    C310029   4.132   0.702  18.998
  678MPD2    C410030   4.122   0.591  19.078
  678MPD2    C510031   4.229   0.564  19.161
  678MPD2     H10032   4.260   0.869  18.950
  678MPD2    H110033   4.037   0.524  19.076
  678MPD2    H210034   4.413   0.607  19.241
  678MPD2    H310035   4.215   0.472  19.217
  678MPD2     N10036   4.041   0.731  18.890
  678MPD2    H510037   4.076   0.795  18.820
  678MPD2    N110038   4.464   0.843  19.091
  678MPD2    H710039   4.462   0.927  19.036
  679TMC3    C110040   0.094   0.987  19.236
  679TMC3    C210041   4.794   0.902  19.239
  679TMC3    C310042   4.679   0.922  19.165
  679TMC3    C410043   0.102   1.049  19.116
  679TMC3    C510044   4.800   1.066  19.036
  679TMC3    C610045   4.682   1.007  19.062
  679TMC3     C10046   0.210   0.922  19.276
  679TMC3     O10047   0.231   0.829  19.199
  679TMC3     H10048   4.804   0.827  19.317
  679TMC3    H110049   0.190   1.104  19.084
  679TMC3    H210050   4.602   1.017  18.990
  679TMC3    C710051   4.797   1.185  18.944
  679TMC3    C810052   4.575   0.827  19.177
  679TMC3    O110053   4.685   1.230  18.922
  679TMC3    O210054   4.598   0.737  19.258
  680MPD2     C10055   4.115   4.087  13.520
  680MPD2    C110056   4.249   4.095  13.553
  680MPD2    C210057   4.296   4.213  13.612
  680MPD2    C310058   4.205   4.307  13.658
  680MPD2    C410059   4.069   4.298  13.621
  680MPD2    C510060   4.023   4.186  13.558
  680MPD2     H10061   4.403   4.214  13.631
  680MPD2    H110062   3.991   4.366  13.654
  680MPD2    H210063   4.074   4.004  13.464
  680MPD2    H310064   3.919   4.172  13.533
  680MPD2     N10065   4.244   4.420  13.735
  680MPD2    H510066   4.171   4.483  13.764
  680MPD2    N110067   4.347   4.003  13.511
  680MPD2    H710068   4.445   4.022  13.531
  681TMC3    C110069   4.439   3.797  13.444
  681TMC3    C210070   4.424   3.678  13.504
  681TMC3    C310071   4.506   3.647  13.608
  681TMC3    C410072   4.555   3.872  13.457
  681TMC3    C510073   4.645   3.831  13.560
  681TMC3    C610074   4.622   3.714  13.633
  681TMC3     C10075   4.318   3.877  13.454
  681TMC3     O10076   4.214   3.812  13.463
  681TMC3     H10077   4.324   3.637  13.515
  681TMC3    H110078   4.560   3.961  13.395
  681TMC3    H210079   4.690   3.679  13.709
  681TMC3    C710080   4.787   3.863  13.547
  681TMC3    C810081   4.428   3.617  13.725
  681TMC3    O110082   0.053   3.792  13.616
  681TMC3    O210083   4.340   3.535  13.712
  682MPD2     C10084   2.164   1.507  10.938
  682MPD2    C110085   2.096   1.391  10.963
  682MPD2    C210086   2.027   1.375  11.078
  682MPD2    C310087   2.049   1.458  11.186
  682MPD2    C410088   2.127   1.568  11.164
  682MPD2    C510089   2.189   1.591  11.043
  682MPD2     H10090   1.953   1.296  11.076
  682MPD2    H110091   2.160   1.629  11.247
  682MPD2    H210092   2.187   1.539  10.837
  682MPD2    H310093   2.243   1.684  11.033
  682MPD2     N10094   1.984   1.439  11.309
  682MPD2    H510095   1.974   1.513  11.379
  682MPD2    N110096   2.067   1.291  10.866
  682MPD2    H710097   2.000   1.218  10.885
  683TMC3    C110098   1.764   1.487  11.633
  683TMC3    C210099   1.633   1.440  11.617
  683TMC3    C310100   1.600   1.353  11.516
  683TMC3    C410101   1.857   1.448  11.539
  683TMC3    C510102   1.822   1.358  11.443
  683TMC3    C610103   1.692   1.308  11.429
  683TMC3     C10104   1.813   1.466  11.769
  683TMC3     O10105   1.908   1.528  11.817
  683TMC3     H10106   1.558   1.467  11.690
  683TMC3    H110107   1.956   1.482  11.566
  683TMC3    H210108   1.656   1.253  11.343
  683TMC3    C710109   1.914   1.331  11.343
  683TMC3    C810110   1.491   1.263  11.555
  683TMC3    O110111   1.883   1.226  11.283
  683TMC3    O210112   1.400   1.316  11.616
  684MPD2     C10113   4.782   4.804  16.546
  684MPD2    C110114   4.741   0.060  16.428
  684MPD2    C210115   4.730   0.199  16.421
  684MPD2    C310116   4.768   0.282  16.531
  684MPD2    C410117   0.004   0.218  16.648
  684MPD2    C510118   0.012   0.077  16.655
  684MPD2     H10119   4.716   0.248  16.325
  684MPD2    H110120   0.042   0.274  16.733
  684MPD2    H210121   4.794   4.697  16.561
  684MPD2    H310122   0.048   0.030  16.746
  684MPD2     N10123   4.784   0.421  16.523
  684MPD2    H510124   0.021   0.470  16.601
  684MPD2    N110125   4.740   4.789  16.304
  684MPD2    H710126   4.717   0.037  16.220
  685TMC3    C110127   4.748   4.606  16.151
  685TMC3    C210128   4.687   4.693  16.062
  685TMC3    C310129   4.700   4.655  15.931
  685TMC3    C410130   0.002   4.492  16.118
  685TMC3    C510131   0.027   4.469  15.986
  685TMC3    C610132   4.785   4.552  15.887
  685TMC3     C10133   4.774   4.656  16.285
  685TMC3     O10134   4.805   4.570  16.364
  685TMC3     H10135   4.622   4.776  16.086
  685TMC3    H110136   0.065   4.445  16.193
  685TMC3    H210137   4.795   4.527  15.782
  685TMC3    C710138   0.142   4.391  15.944
  685TMC3    C810139   4.607   4.702  15.834
  685TMC3    O110140   0.176   4.306  16.024
  685TMC3    O210141   4.618   4.670  15.714
  686MPD2     C10142   1.327   0.331  15.460
  686MPD2    C110143   1.385   0.222  15.528
  686MPD2    C210144   1.485   0.155  15.462
  686MPD2    C310145   1.503   0.173  15.323
  686MPD2    C410146   1.442   0.276  15.258
  686MPD2    C510147   1.365   0.363  15.335
  686MPD2     H10148   1.537   0.082  15.522
  686MPD2    H110149   1.446   0.288  15.150
  686MPD2    H210150   1.251   0.391  15.508
  686MPD2    H310151   1.327   0.451  15.284
  686MPD2     N10152   1.578   0.088  15.239
  686MPD2    H510153   1.595   0.107  15.141
  686MPD2    N110154   1.321   0.187  15.647
  686MPD2    H710155   1.245   0.241  15.686
  687TMC3    C110156   1.576   4.684  15.373
  687TMC3    C210157   1.439   4.674  15.370
  687TMC3    C310158   1.381   4.608  15.479
  687TMC3    C410159   1.655   4.614  15.464
  687TMC3    C510160   1.587   4.559  15.571
  687TMC3    C610161   1.450   4.557  15.580
  687TMC3     C10162   1.652   4.786  15.294
  687TMC3     O10163   1.754   4.741  15.249
  687TMC3     H10164   1.384   4.724  15.292
  687TMC3    H110165   1.760   4.640  15.469
  687TMC3    H210166   1.399   4.515  15.666
  687TMC3    C710167   1.663   4.529  15.690
  687TMC3    C810168   1.241   4.585  15.496
  687TMC3    O110169   1.627   4.565  15.798
  687TMC3    O210170   1.198   4.508  15.581
  688MPD2     C10171   0.566   4.063  17.619
  688MPD2    C110172   0.568   3.928  17.623
  688MPD2    C210173   0.666   3.863  17.541
  688MPD2    C310174   0.750   3.934  17.460
  688MPD2    C410175   0.739   4.072  17.454
  688MPD2    C510176   0.650   4.134  17.539
  688MPD2     H10177   0.682   3.757  17.553
  688MPD2    H110178   0.800   4.138  17.393
  688MPD2    H210179   0.496   4.116  17.683
  688MPD2    H310180   0.634   4.241  17.536
  688MPD2     N10181   0.834   3.870  17.356
  688MPD2    H510182   0.907   3.931  17.321
  688MPD2    N110183   0.486   3.849  17.705
  688MPD2    H710184   0.511   3.751  17.702
  689TMC3    C110185   0.322   3.820  17.884
  689TMC3    C210186   0.259   3.888  17.983
  689TMC3    C310187   0.207   3.811  18.084
  689TMC3    C410188   0.313   3.689  17.863
  689TMC3    C510189   0.258   3.619  17.969
  689TMC3    C610190   0.223   3.680  18.083
  689TMC3     C10191   0.378   3.903  17.772
  689TMC3     O10192   0.331   4.018  17.775
  689TMC3     H10193   0.283   3.993  17.994
  689TMC3    H110194   0.366   3.633  17.787
  689TMC3    H210195   0.177   3.621  18.162
  689TMC3    C710196   0.283   3.474  17.985
  689TMC3    C810197   0.184   3.873  18.210
  689TMC3    O110198   0.319   3.442  18.098
  689TMC3    O210199   0.175   3.807  18.312
  690MPD2     C10200   3.005   1.035  16.072
  690MPD2    C110201   2.972   0.937  15.975
  690MPD2    C210202   3.059   0.908  15.873
  690MPD2    C310203   3.181   0.969  15.864
  690MPD2    C410204   3.216   1.061  15.959
  690MPD2    C510205   3.132   1.095  16.060
  690MPD2     H10206   3.036   0.833  15.798
  690MPD2    H110207   3.303   1.124  15.948
  690MPD2    H210208   2.944   1.048  16.160
  690MPD2    H310209   3.167   1.174  16.126
  690MPD2     N10210   3.265   0.942  15.752
  690MPD2    H510211   3.221   0.901  15.671
  690MPD2    N110212   2.858   0.856  15.981
  690MPD2    H710213   2.857   0.779  15.916
  691TMC3    C110214   2.663   0.752  16.053
  691TMC3    C210215   2.533   0.780  16.064
  691TMC3    C310216   2.449   0.667  16.070
  691TMC3    C410217   2.724   0.636  16.045
  691TMC3    C510218   2.642   0.527  16.049
  691TMC3    C610219   2.507   0.541  16.059
  691TMC3     C10220   2.755   0.862  16.068
  691TMC3     O10221   2.706   0.959  16.122
  691TMC3     H10222   2.496   0.881  16.061
  691TMC3    H110223   2.831   0.626  16.028
  691TMC3    H210224   2.440   0.455  16.054
  691TMC3    C710225   2.702   0.402  16.040
  691TMC3    C810226   2.309   0.675  16.067
  691TMC3    O110227   2.823   0.403  16.066
  691TMC3    O210228   2.251   0.569  16.038
  692TMC3    C110229   4.661   1.794  15.971
  692TMC3    C210230   4.778   1.800  16.035
  692TMC3    C310231   0.051   1.688  16.048
  692TMC3    C410232   4.610   1.687  15.909
  692TMC3    C510233   4.689   1.574  15.924
  692TMC3    C610234   4.800   1.570  15.999
  692TMC3     C10235   4.557   1.883  16.019
  692TMC3     O10236   4.444   1.838  16.023
  692TMC3     H10237   0.004   1.894  16.080
  692TMC3    H110238   4.532   1.690  15.834
  692TMC3    H210239   0.060   1.484  15.997
  692TMC3    C710240   4.640   1.446  15.863
  692TMC3    C810241   0.150   1.667  16.158
  692TMC3    O110242   4.566   1.461  15.765
  692TMC3    O210243   0.154   1.556  16.212
  693MPD2     C10244   4.145   4.761  10.838
  693MPD2    C110245   4.052   4.663  10.859
  693MPD2    C210246   4.093   4.532  10.889
  693MPD2    C310247   4.231   4.505  10.897
  693MPD2    C410248   4.322   4.599  10.853
  693MPD2    C510249   4.282   4.728  10.831
  693MPD2     H10250   4.031   4.444  10.877
  693MPD2    H110251   4.428   4.594  10.873
  693MPD2    H210252   4.111   0.059  10.829
  693MPD2    H310253   4.357   4.803  10.808
  693MPD2     N10254   4.276   4.375  10.939
  693MPD2    H510255   4.373   4.348  10.923
  693MPD2    N110256   3.920   4.693  10.849
  693MPD2    H710257   3.890   4.789  10.837
  694TMC3    C110258   3.690   4.645  10.882
  694TMC3    C210259   3.592   4.577  10.825
  694TMC3    C310260   3.483   4.537  10.906
  694TMC3    C410261   3.689   4.679  11.017
  694TMC3    C510262   3.594   4.622  11.098
  694TMC3    C610263   3.490   4.555  11.043
  694TMC3     C10264   3.821   4.597  10.842
  694TMC3     O10265   3.826   4.491  10.785
  694TMC3     H10266   3.593   4.571  10.716
  694TMC3    H110267   3.770   4.740  11.056
  694TMC3    H210268   3.405   4.513  11.097
  694TMC3    C710269   3.605   4.629  11.237
  694TMC3    C810270   3.366   4.479  10.847
  694TMC3    O110271   3.691   4.703  11.282
  694TMC3    O210272   3.313   4.394  10.915
  695MPD2     C10273   0.443   1.669  13.745
  695MPD2    C110274   0.369   1.644  13.858
  695MPD2    C210275   0.240   1.651  13.841
  695MPD2    C310276   0.175   1.675  13.720
  695MPD2    C410277   0.254   1.680  13.606
  695MPD2    C510278   0.385   1.691  13.621
  695MPD2     H10279   0.177   1.656  13.929
  695MPD2    H110280   0.207   1.687  13.509
  695MPD2    H210281   0.551   1.660  13.745
  695MPD2    H310282   0.444   1.705  13.531
  695MPD2     N10283   0.037   1.695  13.714
  695MPD2    H510284   4.796   1.693  13.805
  695MPD2    N110285   0.422   1.629  13.987
  695MPD2    H710286   0.358   1.616  14.064
  696TMC3    C110287   4.628   1.768  13.660
  696TMC3    C210288   4.568   1.686  13.744
  696TMC3    C310289   4.445   1.719  13.792
  696TMC3    C410290   4.571   1.888  13.620
  696TMC3    C510291   4.450   1.919  13.671
  696TMC3    C610292   4.382   1.834  13.752
  696TMC3     C10293   4.762   1.749  13.613
  696TMC3     O10294   4.787   1.798  13.501
  696TMC3     H10295   4.618   1.600  13.786
  696TMC3    H110296   4.619   1.958  13.553
  696TMC3    H210297   4.283   1.859  13.790
  696TMC3    C710298   4.389   2.044  13.629
  696TMC3    C810299   4.369   1.602  13.823
  696TMC3    O110300   4.411   2.088  13.518
  696TMC3    O210301   4.399   1.508  13.751
  697MPD2     C10302   4.336   3.383  15.877
  697MPD2    C110303   4.348   3.316  15.762
  697MPD2    C210304   4.377   3.387  15.646
  697MPD2    C310305   4.380   3.526  15.640
  697MPD2    C410306   4.353   3.589  15.756
  697MPD2    C510307   4.331   3.523  15.874
  697MPD2     H10308   4.392   3.335  15.552
  697MPD2    H110309   4.335   3.694  15.771
  697MPD2    H210310   4.325   3.335  15.974
  697MPD2    H310311   4.323   3.577  15.968
  697MPD2     N10312   4.391   3.596  15.519
  697MPD2    H510313   4.393   3.540  15.434
  697MPD2    N110314   4.337   3.174  15.759
  697MPD2    H710315   4.357   3.130  15.670
  698TMC3    C110316   4.427   3.788  15.379
  698TMC3    C210317   4.458   3.921  15.391
  698TMC3    C310318   4.548   3.990  15.307
  698TMC3    C410319   4.496   3.715  15.289
  698TMC3    C510320   4.571   3.787  15.200
  698TMC3    C610321   4.605   3.918  15.205
  698TMC3     C10322   4.413   3.732  15.516
  698TMC3     O10323   4.411   3.821  15.603
  698TMC3     H10324   4.398   3.978  15.461
  698TMC3    H110325   4.479   3.612  15.259
  698TMC3    H210326   4.668   3.964  15.130
  698TMC3    C710327   4.549   3.739  15.063
  698TMC3    C810328   4.500   4.117  15.261
  698TMC3    O110329   4.434   3.697  15.041
  698TMC3    O210330   4.387   4.149  15.291
  699TMC3    C110331   4.533   1.780  13.311
  699TMC3    C210332   4.585   1.655  13.312
  699TMC3    C310333   4.498   1.554  13.351
  699TMC3    C410334   4.400   1.810  13.332
  699TMC3    C510335   4.314   1.699  13.364
  699TMC3    C610336   4.362   1.572  13.368
  699TMC3     C10337   4.592   1.886  13.231
  699TMC3     O10338   4.522   1.988  13.209
  699TMC3     H10339   4.692   1.639  13.311
  699TMC3    H110340   4.369   1.913  13.339
  699TMC3    H210341   4.299   1.495  13.411
  699TMC3    C710342   4.172   1.727  13.391
  699TMC3    C810343   4.552   1.448  13.437
  699TMC3    O110344   4.142   1.844  13.406
  699TMC3    O210345   4.470   1.360  13.465
  700TMC3    C110346   3.304   3.888  17.153
  700TMC3    C210347   3.349   3.759  17.142
  700TMC3    C310348   3.393   3.701  17.259
  700TMC3    C410349   3.278   3.944  17.269
  700TMC3    C510350   3.311   3.884  17.388
  700TMC3    C610351   3.373   3.762  17.383
  700TMC3     C10352   3.321   3.959  17.031
  700TMC3     O10353   3.300   3.901  16.926
  700TMC3     H10354   3.364   3.718  17.043
  700TMC3    H110355   3.249   4.049  17.272
  700TMC3    H210356   3.410   3.723  17.477
  700TMC3    C710357   3.335   3.975  17.498
  700TMC3    C810358   3.508   3.620  17.251
  700TMC3    O110359   3.437   3.949  17.570
  700TMC3    O210360   3.575   3.655  17.157
  701TMC3    C110361   3.826   2.473  15.769
  701TMC3    C210362   3.809   2.431  15.641
  701TMC3    C310363   3.862   2.500  15.533
  701TMC3    C410364   3.906   2.578  15.789
  701TMC3    C510365   3.959   2.652  15.686
  701TMC3    C610366   3.938   2.610  15.560
  701TMC3     C10367   3.706   2.482  15.849
  701TMC3     O10368   3.694   2.593  15.901
  701TMC3     H10369   3.743   2.349  15.616
  701TMC3    H110370   3.917   2.609  15.892
  701TMC3    H210371   3.973   2.673  15.479
  701TMC3    C710372   3.967   2.801  15.697
  701TMC3    C810373   3.825   2.473  15.392
  701TMC3    O110374   3.996   2.871  15.598
  701TMC3    O210375   3.903   2.524  15.311
  702MPD2     C10376   3.181   0.594  10.594
  702MPD2    C110377   3.095   0.613  10.696
  702MPD2    C210378   3.040   0.736  10.715
  702MPD2    C310379   3.069   0.844  10.636
  702MPD2    C410380   3.148   0.819  10.527
  702MPD2    C510381   3.197   0.698  10.508
  702MPD2     H10382   2.969   0.756  10.794
  702MPD2    H110383   3.186   0.899  10.465
  702MPD2    H210384   3.225   0.497  10.573
  702MPD2    H310385   3.256   0.676  10.420
  702MPD2     N10386   3.037   0.973  10.674
  702MPD2    H510387   3.096   1.042  10.629
  702MPD2    N110388   3.068   0.518  10.796
  702MPD2    H710389   3.002   0.544  10.869
  703TMC3    C110390   2.999   1.081  10.879
  703TMC3    C210391   2.945   1.057  11.000
  703TMC3    C310392   3.014   1.094  11.115
  703TMC3    C410393   3.124   1.136  10.874
  703TMC3    C510394   3.185   1.166  10.992
  703TMC3    C610395   3.129   1.154  11.113
  703TMC3     C10396   2.949   1.002  10.772
  703TMC3     O10397   2.842   0.953  10.794
  703TMC3     H10398   2.854   1.001  11.016
  703TMC3    H110399   3.180   1.142  10.781
  703TMC3    H210400   3.183   1.178  11.204
  703TMC3    C710401   3.326   1.194  10.982
  703TMC3    C810402   2.971   1.049  11.244
  703TMC3    O110403   3.368   1.225  10.870
  703TMC3    O210404   3.056   1.030  11.331
  704TMC3    C110405   1.370   3.390  13.202
  704TMC3    C210406   1.469   3.374  13.116
  704TMC3    C310407   1.550   3.263  13.122
  704TMC3    C410408   1.345   3.307  13.305
  704TMC3    C510409   1.415   3.188  13.304
  704TMC3    C610410   1.521   3.166  13.221
  704TMC3     C10411   1.249   3.445  13.144
  704TMC3     O10412   1.177   3.507  13.221
  704TMC3     H10413   1.486   3.453  13.044
  704TMC3    H110414   1.247   3.313  13.352
  704TMC3    H210415   1.566   3.068  13.215
  704TMC3    C710416   1.337   3.070  13.340
  704TMC3    C810417   1.553   3.215  12.990
  704TMC3    O110418   1.359   2.974  13.266
  704TMC3    O210419   1.464   3.256  12.918
  705MPD2     C10420   0.150   1.116  16.515
  705MPD2    C110421   0.203   1.225  16.580
  705MPD2    C210422   0.115   1.311  16.652
  705MPD2    C310423   4.788   1.270  16.669
  705MPD2    C410424   4.738   1.174  16.585
  705MPD2    C510425   0.017   1.093  16.515
  705MPD2     H10426   0.158   1.395  16.705
  705MPD2    H110427   4.633   1.148  16.579
  705MPD2    H210428   0.204   1.042  16.458
  705MPD2    H310429   4.778   1.021  16.446
  705MPD2     N10430   4.686   1.349  16.735
  705MPD2    H510431   4.589   1.322  16.720
  705MPD2    N110432   0.334   1.266  16.563
  705MPD2    H710433   0.376   1.332  16.628
  706TMC3    C110434   0.632   1.271  16.231
  706TMC3    C210435   0.612   1.406  16.201
  706TMC3    C310436   0.559   1.478  16.308
  706TMC3    C410437   0.609   1.215  16.355
  706TMC3    C510438   0.538   1.284  16.445
  706TMC3    C610439   0.513   1.417  16.423
  706TMC3     C10440   0.714   1.191  16.136
  706TMC3     O10441   0.770   1.087  16.180
  706TMC3     H10442   0.631   1.452  16.105
  706TMC3    H110443   0.627   1.108  16.367
  706TMC3    H210444   0.463   1.482  16.494
  706TMC3    C710445   0.418   1.214  16.467
  706TMC3    C810446   0.538   1.616  16.291
  706TMC3    O110447   0.401   1.140  16.376
  706TMC3    O210448   0.528   1.662  16.177
  707TMC3    C110449   2.021   0.770  18.560
  707TMC3    C210450   1.960   0.775  18.682
  707TMC3    C310451   1.849   0.690  18.704
  707TMC3    C410452   1.966   0.688  18.455
  707TMC3    C510453   1.857   0.605  18.492
  707TMC3    C610454   1.798   0.610  18.610
  707TMC3     C10455   2.170   0.762  18.564
  707TMC3     O10456   2.216   0.750  18.679
  707TMC3     H10457   2.007   0.825  18.766
  707TMC3    H110458   2.013   0.686  18.358
  707TMC3    H210459   1.721   0.541  18.643
  707TMC3    C710460   1.818   0.501  18.403
  707TMC3    C810461   1.829   0.663  18.849
  707TMC3    O110462   1.711   0.448  18.422
  707TMC3    O210463   1.841   0.753  18.926
  708MPD2     C10464   3.389   4.729  14.252
  708MPD2    C110465   3.291   4.744  14.345
  708MPD2    C210466   3.243   4.630  14.413
  708MPD2    C310467   3.301   4.507  14.392
  708MPD2    C410468   3.403   4.500  14.302
  708MPD2    C510469   3.450   4.608  14.235
  708MPD2     H10470   3.152   4.643  14.471
  708MPD2    H110471   3.467   4.413  14.295
  708MPD2    H210472   3.421   0.012  14.196
  708MPD2    H310473   3.534   4.598  14.167
  708MPD2     N10474   3.269   4.387  14.458
  708MPD2    H510475   3.302   4.303  14.412
  708MPD2    N110476   3.245   0.070  14.365
  708MPD2    H710477   3.299   0.139  14.313
  709TMC3    C110478   3.064   0.219  14.382
  709TMC3    C210479   3.024   0.202  14.252
  709TMC3    C310480   2.886   0.210  14.225
  709TMC3    C410481   2.977   0.264  14.471
  709TMC3    C510482   2.839   0.271  14.448
  709TMC3    C610483   2.796   0.246  14.320
  709TMC3     C10484   3.136   0.103  14.436
  709TMC3     O10485   3.061   0.038  14.504
  709TMC3     H10486   3.104   0.175  14.184
  709TMC3    H110487   3.018   0.263  14.572
  709TMC3    H210488   2.689   0.254  14.306
  709TMC3    C710489   2.751   0.275  14.565
  709TMC3    C810490   2.846   0.173  14.085
  709TMC3    O110491   2.806   0.301  14.672
  709TMC3    O210492   2.729   0.167  14.055
  710TMC3    C110493   4.376   1.716  18.499
  710TMC3    C210494   4.400   1.707  18.369
  710TMC3    C310495   4.528   1.688  18.324
  710TMC3    C410496   4.476   1.715  18.592
  710TMC3    C510497   4.600   1.700  18.544
  710TMC3    C610498   4.632   1.691  18.409
  710TMC3     C10499   4.247   1.660  18.546
  710TMC3     O10500   4.182   1.603  18.457
  710TMC3     H10501   4.312   1.702  18.306
  710TMC3    H110502   4.454   1.710  18.698
  710TMC3    H210503   4.735   1.693  18.374
  710TMC3    C710504   4.680   1.620  18.639
  710TMC3    C810505   4.545   1.630  18.190
  710TMC3    O110506   4.632   1.586  18.745
  710TMC3    O210507   4.664   1.630  18.154
  711TMC3    C110508   4.241   2.376  15.148
  711TMC3    C210509   4.217   2.421  15.277
  711TMC3    C310510   4.324   2.448  15.359
  711TMC3    C410511   4.367   2.358  15.101
  711TMC3    C510512   4.466   2.380  15.191
  711TMC3    C610513   4.451   2.443  15.313
  711TMC3     C10514   4.154   2.271  15.100
  711TMC3     O10515   4.188   2.203  15.005
  711TMC3     H10516   4.116   2.438  15.311
  711TMC3    H110517   4.394   2.308  15.009
  711TMC3    H210518   4.534   2.457  15.380
  711TMC3    C710519   4.530   2.246  15.223
  711TMC3    C810520   4.306   2.377  15.479
  711TMC3    O110521   4.617   2.242  15.307
  711TMC3    O210522   4.210   2.296  15.493
  712MPD2     C10523   0.441   3.403  13.708
  712MPD2    C110524   0.562   3.409  13.772
  712MPD2    C210525   0.655   3.500  13.737
  712MPD2    C310526   0.636   3.592  13.634
  712MPD2    C410527   0.515   3.592  13.572
  712MPD2    C510528   0.424   3.492  13.600
  712MPD2     H10529   0.748   3.491  13.793
  712MPD2    H110530   0.493   3.661  13.491
  712MPD2    H210531   0.364   3.327  13.719
  712MPD2    H310532   0.332   3.484  13.544
  712MPD2     N10533   0.732   3.691  13.607
  712MPD2    H510534   0.709   3.758  13.534
  712MPD2    N110535   0.599   3.300  13.863
  712MPD2    H710536   0.698   3.281  13.874
  713TMC3    C110537   0.907   3.847  13.650
  713TMC3    C210538   1.036   3.846  13.672
  713TMC3    C310539   1.102   3.953  13.628
  713TMC3    C410540   0.834   3.948  13.594
  713TMC3    C510541   0.904   4.059  13.549
  713TMC3    C610542   1.038   4.063  13.570
  713TMC3     C10543   0.838   3.725  13.688
  713TMC3     O10544   0.896   3.665  13.779
  713TMC3     H10545   1.088   3.755  13.702
  713TMC3    H110546   0.725   3.946  13.595
  713TMC3    H210547   1.091   4.154  13.541
  713TMC3    C710548   0.844   4.188  13.570
  713TMC3    C810549   1.228   3.979  13.691
  713TMC3    O110550   0.919   4.279  13.589
  713TMC3    O210551   1.296   4.066  13.638
  714MPD2     C10552   2.543   1.811  19.429
  714MPD2    C110553   2.644   1.903  19.402
  714MPD2    C210554   2.606   1.995  19.306
  714MPD2    C310555   2.482   2.018  19.259
  714MPD2    C410556   2.385   1.925  19.294
  714MPD2    C510557   2.419   1.820  19.372
  714MPD2     H10558   2.687   2.049  19.257
  714MPD2    H110559   2.281   1.929  19.266
  714MPD2    H210560   2.557   1.723  19.491
  714MPD2    H310561   2.342   1.746  19.386
  714MPD2     N10562   2.462   2.103  19.147
  714MPD2    H510563   2.544   2.136  19.098
  714MPD2    N110564   2.771   1.900  19.460
  714MPD2    H710565   2.799   1.818  19.513
  715TMC3    C110566   2.969   2.002  19.536
  715TMC3    C210567   3.054   1.893  19.505
  715TMC3    C310568   3.184   1.918  19.536
  715TMC3    C410569   3.009   2.124  19.581
  715TMC3    C510570   3.140   2.141  19.598
  715TMC3    C610571   3.231   2.039  19.578
  715TMC3     C10572   2.847   2.011  19.459
  715TMC3     O10573   2.813   2.128  19.445
  715TMC3     H10574   3.022   1.794  19.474
  715TMC3    H110575   2.938   2.198  19.616
  715TMC3    H210576   3.337   2.063  19.580
  715TMC3    C710577   3.195   2.260  19.649
  715TMC3    C810578   3.279   1.831  19.467
  715TMC3    O110579   3.317   2.261  19.665
  715TMC3    O210580   3.239   1.760  19.382
  716MPD2     C10581   3.038   0.612  10.157
  716MPD2    C110582   2.964   0.607  10.039
  716MPD2    C210583   2.939   0.482   9.990
  716MPD2    C310584   2.989   0.367  10.049
  716MPD2    C410585   3.072   0.373  10.164
  716MPD2    C510586   3.091   0.492  10.220
  716MPD2     H10587   2.860   0.468   9.917
  716MPD2    H110588   3.123   0.292  10.216
  716MPD2    H210589   3.068   0.707  10.198
  716MPD2    H310590   3.142   0.506  10.314
  716MPD2     N10591   2.945   0.247   9.991
  716MPD2    H510592   2.895   0.264   9.904
  716MPD2    N110593   2.917   0.725   9.970
  716MPD2    H710594   2.931   0.817  10.011
  717TMC3    C110595   2.970   0.028   9.923
  717TMC3    C210596   2.855   0.045   9.849
  717TMC3    C310597   2.827   4.754   9.753
  717TMC3    C410598   3.045   4.715   9.927
  717TMC3    C510599   3.002   4.620   9.834
  717TMC3    C610600   2.890   4.629   9.746
  717TMC3     C10601   2.993   0.122  10.031
  717TMC3     O10602   3.081   0.093  10.114
  717TMC3     H10603   2.788   0.128   9.865
  717TMC3    H110604   3.138   4.701   9.980
  717TMC3    H210605   2.844   4.549   9.689
  717TMC3    C710606   3.056   4.490   9.855
  717TMC3    C810607   2.709   4.789   9.670
  717TMC3    O110608   3.126   4.471   9.951
  717TMC3    O210609   2.657   0.093   9.695
  718MPD2     C10610   2.456   4.103  13.069
  718MPD2    C110611   2.346   4.041  13.015
  718MPD2    C210612   2.311   3.917  13.058
  718MPD2    C310613   2.391   3.853  13.153
  718MPD2    C410614   2.504   3.916  13.206
  718MPD2    C510615   2.532   4.048  13.169
  718MPD2     H10616   2.225   3.867  13.015
  718MPD2    H110617   2.570   3.870  13.278
  718MPD2    H210618   2.483   4.203  13.038
  718MPD2    H310619   2.622   4.095  13.207
  718MPD2     N10620   2.350   3.730  13.187
  718MPD2    H510621   2.283   3.696  13.118
  718MPD2    N110622   2.284   4.125  12.920
  718MPD2    H710623   2.320   4.217  12.896
  719TMC3    C110624   2.153   4.152  12.730
  719TMC3    C210625   2.125   4.039  12.647
  719TMC3    C310626   2.211   4.003  12.549
  719TMC3    C410627   2.247   4.240  12.699
  719TMC3    C510628   2.334   4.208  12.597
  719TMC3    C610629   2.312   4.092  12.523
  719TMC3     C10630   2.160   4.093  12.863
  719TMC3     O10631   2.084   4.005  12.888
  719TMC3     H10632   2.051   3.962  12.666
  719TMC3    H110633   2.243   4.334  12.753
  719TMC3    H210634   2.394   4.051  12.464
  719TMC3    C710635   2.440   4.308  12.569
  719TMC3    C810636   2.265   3.871  12.565
  719TMC3    O110637   2.490   4.285  12.456
  719TMC3    O210638   2.364   3.868  12.636
  720MPD2     C10639   0.506   0.756  14.306
  720MPD2    C110640   0.590   0.732  14.203
  720MPD2    C210641   0.721   0.695  14.230
  720MPD2    C310642   0.761   0.683  14.361
  720MPD2    C410643   0.677   0.684  14.464
  720MPD2    C510644   0.546   0.727  14.432
  720MPD2     H10645   0.803   0.695  14.159
  720MPD2    H110646   0.693   0.662  14.569
  720MPD2    H210647   0.401   0.780  14.292
  720MPD2    H310648   0.465   0.736  14.504
  720MPD2     N10649   0.902   0.655  14.384
  720MPD2    H510650   0.969   0.688  14.315
  720MPD2    N110651   0.560   0.773  14.071
  720MPD2    H710652   0.628   0.749  13.999
  721TMC3    C110653   1.092   0.654  14.521
  721TMC3    C210654   1.127   0.681  14.652
  721TMC3    C310655   1.255   0.720  14.684
  721TMC3    C410656   1.180   0.663  14.417
  721TMC3    C510657   1.307   0.700  14.457
  721TMC3    C610658   1.348   0.724  14.583
  721TMC3     C10659   0.958   0.607  14.499
  721TMC3     O10660   0.896   0.554  14.588
  721TMC3     H10661   1.059   0.669  14.736
  721TMC3    H110662   1.146   0.627  14.321
  721TMC3    H210663   1.452   0.736  14.609
  721TMC3    C710664   1.416   0.661  14.371
  721TMC3    C810665   1.321   0.679  14.811
  721TMC3    O110666   1.432   0.707  14.257
  721TMC3    O210667   1.422   0.614  14.800
  722MPD2     C10668   4.420   4.121  13.212
  722MPD2    C110669   4.391   4.243  13.272
  722MPD2    C210670   4.261   4.284  13.265
  722MPD2    C310671   4.155   4.209  13.214
  722MPD2    C410672   4.192   4.085  13.169
  722MPD2    C510673   4.321   4.056  13.154
  722MPD2     H10674   4.226   4.384  13.289
  722MPD2    H110675   4.117   4.018  13.129
  722MPD2    H210676   4.518   4.075  13.214
  722MPD2    H310677   4.349   3.967  13.099
  722MPD2     N10678   4.022   4.258  13.214
  722MPD2    H510679   4.003   4.353  13.244
  722MPD2    N110680   4.489   4.321  13.326
  722MPD2    H710681   4.456   4.409  13.363
  723TMC3    C110682   3.789   4.246  13.202
  723TMC3    C210683   3.676   4.164  13.228
  723TMC3    C310684   3.560   4.217  13.189
  723TMC3    C410685   3.768   4.374  13.153
  723TMC3    C510686   3.648   4.424  13.138
  723TMC3    C610687   3.545   4.339  13.147
  723TMC3     C10688   3.912   4.176  13.197
  723TMC3     O10689   3.902   4.056  13.204
  723TMC3     H10690   3.686   4.064  13.268
  723TMC3    H110691   3.857   4.433  13.132
  723TMC3    H210692   3.443   4.374  13.133
  723TMC3    C710693   3.613   4.551  13.093
  723TMC3    C810694   3.444   4.143  13.215
  723TMC3    O110695   3.544   4.562  12.992
  723TMC3    O210696   3.356   4.201  13.271
  724TMC3    C110697   0.138   2.316  10.578
  724TMC3    C210698   0.053   2.318  10.473
  724TMC3    C310699   0.108   2.361  10.349
  724TMC3    C410700   0.266   2.351  10.566
  724TMC3    C510701   0.316   2.381  10.442
  724TMC3    C610702   0.243   2.375  10.328
  724TMC3     C10703   0.106   2.230  10.695
  724TMC3     O10704   0.188   2.224  10.788
  724TMC3     H10705   4.751   2.326  10.487
  724TMC3    H110706   0.338   2.326  10.643
  724TMC3    H210707   0.280   2.413  10.234
  724TMC3    C710708   0.411   2.489  10.433
  724TMC3    C810709   0.040   2.467  10.277
  724TMC3    O110710   0.458   2.517  10.324
  724TMC3    O210711   4.723   2.459  10.266
  725TMC3    C110712   1.625   1.012  13.098
  725TMC3    C210713   1.612   0.975  12.969
  725TMC3    C310714   1.528   0.874  12.939
  725TMC3    C410715   1.567   0.946  13.197
  725TMC3    C510716   1.489   0.841  13.173
  725TMC3    C610717   1.462   0.803  13.039
  725TMC3     C10718   1.739   1.092  13.134
  725TMC3     O10719   1.717   1.196  13.195
  725TMC3     H10720   1.667   1.030  12.893
  725TMC3    H110721   1.582   0.981  13.299
  725TMC3    H210722   1.387   0.728  13.017
  725TMC3    C710723   1.433   0.761  13.282
  725TMC3    C810724   1.477   0.865  12.803
  725TMC3    O110725   1.366   0.838  13.354
  725TMC3    O210726   1.406   0.766  12.780
  726MPD2     C10727   3.896   2.483  10.315
  726MPD2    C110728   3.892   2.600  10.395
  726MPD2    C210729   3.787   2.610  10.489
  726MPD2    C310730   3.696   2.511  10.502
  726MPD2    C410731   3.716   2.388  10.438
  726MPD2    C510732   3.817   2.375  10.342
  726MPD2     H10733   3.772   2.699  10.549
  726MPD2    H110734   3.648   2.304  10.442
  726MPD2    H210735   3.983   2.482  10.250
  726MPD2    H310736   3.825   2.287  10.279
  726MPD2     N10737   3.588   2.504  10.601
  726MPD2    H510738   3.530   2.421  10.606
  726MPD2    N110739   3.991   2.706  10.385
  726MPD2    H710740   3.987   2.771  10.463
  727TMC3    C110741   4.124   2.854  10.290
  727TMC3    C210742   4.155   2.909  10.405
  727TMC3    C310743   4.115   3.037  10.423
  727TMC3    C410744   4.067   2.929  10.185
  727TMC3    C510745   4.031   3.057  10.208
  727TMC3    C610746   4.049   3.113  10.329
  727TMC3     C10747   4.079   2.716  10.287
  727TMC3     O10748   4.083   2.663  10.178
  727TMC3     H10749   4.192   2.852  10.489
  727TMC3    H110750   4.042   2.883  10.090
  727TMC3    H210751   3.989   3.201  10.351
  727TMC3    C710752   3.940   3.118  10.108
  727TMC3    C810753   4.145   3.100  10.551
  727TMC3    O110754   3.872   3.034  10.053
  727TMC3    O210755   4.209   3.040  10.635
  728TMC3    C110756   3.453   0.966  15.611
  728TMC3    C210757   3.586   0.965  15.598
  728TMC3    C310758   3.646   0.961  15.476
  728TMC3    C410759   3.371   0.986  15.498
  728TMC3    C510760   3.437   0.992  15.377
  728TMC3    C610761   3.568   0.961  15.362
  728TMC3     C10762   3.396   0.966  15.751
  728TMC3     O10763   3.467   1.002  15.845
  728TMC3     H10764   3.639   0.960  15.692
  728TMC3    H110765   3.263   0.999  15.490
  728TMC3    H210766   3.611   0.943  15.264
  728TMC3    C710767   3.360   0.994  15.255
  728TMC3    C810768   3.785   1.001  15.488
  728TMC3    O110769   3.250   0.945  15.245
  728TMC3    O210770   3.817   1.030  15.604
  729MPD2     C10771   1.051   2.020  16.714
  729MPD2    C110772   1.149   2.054  16.804
  729MPD2    C210773   1.125   2.051  16.944
  729MPD2    C310774   1.000   2.007  16.981
  729MPD2    C410775   0.906   1.972  16.885
  729MPD2    C510776   0.926   1.989  16.753
  729MPD2     H10777   1.200   2.083  17.016
  729MPD2    H110778   0.809   1.932  16.914
  729MPD2    H210779   1.067   2.023  16.607
  729MPD2    H310780   0.844   1.952  16.692
  729MPD2     N10781   0.965   2.000  17.116
  729MPD2    H510782   0.875   1.959  17.136
  729MPD2    N110783   1.270   2.092  16.757
  729MPD2    H710784   1.277   2.097  16.656
  730TMC3    C110785   0.977   2.033  17.348
  730TMC3    C210786   1.057   2.042  17.454
  730TMC3    C310787   1.016   2.120  17.562
  730TMC3    C410788   0.852   2.091  17.333
  730TMC3    C510789   0.812   2.174  17.441
  730TMC3    C610790   0.897   2.189  17.546
  730TMC3     C10791   1.050   2.020  17.221
  730TMC3     O10792   1.176   2.025  17.221
  730TMC3     H10793   1.146   1.981  17.463
  730TMC3    H110794   0.784   2.080  17.250
  730TMC3    H210795   0.867   2.243  17.635
  730TMC3    C710796   0.771   2.301  17.386
  730TMC3    C810797   1.133   2.204  17.591
  730TMC3    O110798   0.788   2.327  17.267
  730TMC3    O210799   1.246   2.153  17.574
  731MPD2     C10800   1.135   0.437  12.707
  731MPD2    C110801   1.214   0.342  12.651
  731MPD2    C210802   1.247   0.240  12.731
  731MPD2    C310803   1.210   0.228  12.868
  731MPD2    C410804   1.135   0.327  12.923
  731MPD2    C510805   1.104   0.432  12.837
  731MPD2     H10806   1.302   0.157  12.689
  731MPD2    H110807   1.104   0.332  13.027
  731MPD2    H210808   1.101   0.521  12.647
  731MPD2    H310809   1.055   0.525  12.867
  731MPD2     N10810   1.236   0.108  12.930
  731MPD2    H510811   1.303   0.046  12.885
  731MPD2    N110812   1.255   0.347  12.516
  731MPD2    H710813   1.243   0.438  12.473
  732TMC3    C110814   1.322   0.289  12.292
  732TMC3    C210815   1.272   0.204  12.197
  732TMC3    C310816   1.259   0.259  12.079
  732TMC3    C410817   1.376   0.415  12.274
  732TMC3    C510818   1.364   0.456  12.145
  732TMC3    C610819   1.306   0.383  12.040
  732TMC3     C10820   1.298   0.244  12.435
  732TMC3     O10821   1.280   0.126  12.456
  732TMC3     H10822   1.234   0.105  12.220
  732TMC3    H110823   1.429   0.458  12.358
  732TMC3    H210824   1.297   0.425  11.940
  732TMC3    C710825   1.449   0.561  12.103
  732TMC3    C810826   1.160   0.195  11.993
  732TMC3    O110827   1.459   0.580  11.979
  732TMC3    O210828   1.188   0.156  11.883
  733TMC3    C110829   2.270   3.336  13.318
  733TMC3    C210830   2.360   3.434  13.357
  733TMC3    C310831   2.418   3.506  13.256
  733TMC3    C410832   2.239   3.298  13.189
  733TMC3    C510833   2.314   3.364  13.090
  733TMC3    C610834   2.402   3.471  13.124
  733TMC3     C10835   2.143   3.333  13.389
  733TMC3     O10836   2.042   3.351  13.323
  733TMC3     H10837   2.364   3.473  13.458
  733TMC3    H110838   2.173   3.213  13.175
  733TMC3    H210839   2.437   3.536  13.044
  733TMC3    C710840   2.254   3.357  12.957
  733TMC3    C810841   2.423   3.651  13.281
  733TMC3    O110842   2.197   3.258  12.920
  733TMC3    O210843   2.466   3.691  13.388
  734MPD2     C10844   3.718   1.372  12.671
  734MPD2    C110845   3.766   1.256  12.605
  734MPD2    C210846   3.824   1.271  12.480
  734MPD2    C310847   3.858   1.398  12.432
  734MPD2    C410848   3.831   1.506  12.507
  734MPD2    C510849   3.765   1.494  12.629
  734MPD2     H10850   3.860   1.189  12.419
  734MPD2    H110851   3.841   1.605  12.464
  734MPD2    H210852   3.665   1.363  12.766
  734MPD2    H310853   3.733   1.580  12.686
  734MPD2     N10854   3.925   1.404  12.307
  734MPD2    H510855   3.957   1.313  12.277
  734MPD2    N110856   3.737   1.133  12.668
  734MPD2    H710857   3.704   1.128  12.764
  735TMC3    C110858   3.688   0.907  12.666
  735TMC3    C210859   3.590   0.882  12.577
  735TMC3    C310860   3.571   0.753  12.538
  735TMC3    C410861   3.753   0.800  12.720
  735TMC3    C510862   3.728   0.671  12.677
  735TMC3    C610863   3.631   0.639  12.590
  735TMC3     C10864   3.750   1.013  12.603
  735TMC3     O10865   3.805   0.982  12.500
  735TMC3     H10866   3.526   0.962  12.543
  735TMC3    H110867   3.835   0.832  12.783
  735TMC3    H210868   3.620   0.552  12.526
  735TMC3    C710869   3.835   0.582  12.698
  735TMC3    C810870   3.546   0.746  12.396
  735TMC3    O110871   3.945   0.621  12.743
  735TMC3    O210872   3.461   0.667  12.353
  736MPD2     C10873   3.824   0.221  12.650
  736MPD2    C110874   3.879   0.343  12.651
  736MPD2    C210875   4.017   0.353  12.637
  736MPD2    C310876   4.087   0.246  12.600
  736MPD2    C410877   4.032   0.122  12.607
  736MPD2    C510878   3.897   0.104  12.634
  736MPD2     H10879   4.057   0.454  12.636
  736MPD2    H110880   4.088   0.031  12.586
  736MPD2    H210881   3.716   0.214  12.650
  736MPD2    H310882   3.855   0.004  12.631
  736MPD2     N10883   4.217   0.245  12.562
  736MPD2    H510884   4.254   0.156  12.528
  736MPD2    N110885   3.794   0.454  12.655
  736MPD2    H710886   3.697   0.437  12.631
  737TMC3    C110887   4.429   0.342  12.493
  737TMC3    C210888   4.470   0.463  12.449
  737TMC3    C310889   4.533   0.466  12.325
  737TMC3    C410890   4.442   0.233  12.410
  737TMC3    C510891   4.505   0.242  12.286
  737TMC3    C610892   4.553   0.357  12.236
  737TMC3     C10893   4.289   0.362  12.533
  737TMC3     O10894   4.246   0.471  12.506
  737TMC3     H10895   4.461   0.561  12.496
  737TMC3    H110896   4.435   0.136  12.458
  737TMC3    H210897   4.570   0.370  12.129
  737TMC3    C710898   4.562   0.120  12.235
  737TMC3    C810899   4.588   0.597  12.287
  737TMC3    O110900   4.517   0.010  12.273
  737TMC3    O210901   4.598   0.681  12.375
  738MPD2     C10902   4.445   4.316  15.056
  738MPD2    C110903   4.571   4.282  15.099
  738MPD2    C210904   4.676   4.353  15.048
  738MPD2    C310905   4.663   4.446  14.946
  738MPD2    C410906   4.535   4.475  14.913
  738MPD2    C510907   4.426   4.412  14.967
  738MPD2     H10908   4.775   4.319  15.076
  738MPD2    H110909   4.523   4.547  14.833
  738MPD2    H210910   4.363   4.260  15.099
  738MPD2    H310911   4.325   4.435  14.935
  738MPD2     N10912   4.776   4.505  14.883
  738MPD2    H510913   4.763   4.569  14.806
  738MPD2    N110914   4.596   4.182  15.191
  738MPD2    H710915   4.694   4.155  15.196
  739TMC3    C110916   0.191   4.526  14.806
  739TMC3    C210917   0.150   4.563  14.682
  739TMC3    C310918   0.246   4.616  14.599
  739TMC3    C410919   0.308   4.570  14.866
  739TMC3    C510920   0.395   4.638  14.783
  739TMC3    C610921   0.372   4.655  14.648
  739TMC3     C10922   0.104   4.474  14.908
  739TMC3     O10923   0.156   4.424  15.010
  739TMC3     H10924   0.059   4.519  14.642
  739TMC3    H110925   0.329   4.553  14.971
  739TMC3    H210926   0.453   4.684  14.582
  739TMC3    C710927   0.523   4.678  14.848
  739TMC3    C810928   0.214   4.616  14.459
  739TMC3    O110929   0.553   4.613  14.949
  739TMC3    O210930   0.110   4.566  14.424
  740TMC3    C110931   0.652   1.007  14.586
  740TMC3    C210932   0.700   0.948  14.700
  740TMC3    C310933   0.839   0.931  14.714
  740TMC3    C410934   0.730   1.013  14.474
  740TMC3    C510935   0.868   0.995  14.493
  740TMC3    C610936   0.923   0.951  14.610
  740TMC3     C10937   0.512   1.038  14.569
  740TMC3     O10938   0.481   1.120  14.487
  740TMC3     H10939   0.649   0.955  14.795
  740TMC3    H110940   0.692   1.046  14.378
  740TMC3    H210941   1.031   0.941  14.616
  740TMC3    C710942   0.944   0.978  14.372
  740TMC3    C810943   0.892   0.867  14.830
  740TMC3    O110944   1.047   0.915  14.396
  740TMC3    O210945   1.009   0.873  14.851
  741TMC3    C110946   0.069   0.491  14.141
  741TMC3    C210947   4.768   0.403  14.149
  741TMC3    C310948   4.776   0.311  14.245
  741TMC3    C410949   0.172   0.481  14.228
  741TMC3    C510950   0.180   0.373  14.318
  741TMC3    C610951   0.074   0.288  14.334
  741TMC3     C10952   0.090   0.564  14.017
  741TMC3     O10953   0.202   0.611  13.993
  741TMC3     H10954   4.690   0.419  14.075
  741TMC3    H110955   0.257   0.542  14.200
  741TMC3    H210956   0.094   0.192  14.381
  741TMC3    C710957   0.289   0.383  14.413
  741TMC3    C810958   4.656   0.229  14.261
  741TMC3    O110959   0.395   0.421  14.372
  741TMC3    O210960   4.576   0.238  14.168
  742TMC3    C110961   0.179   3.535  15.697
  742TMC3    C210962   0.084   3.502  15.599
  742TMC3    C310963   0.133   3.500  15.468
  742TMC3    C410964   0.312   3.553  15.661
  742TMC3    C510965   0.348   3.564  15.534
  742TMC3    C610966   0.260   3.536  15.430
  742TMC3     C10967   0.158   3.500  15.835
  742TMC3     O10968   0.239   3.431  15.888
  742TMC3     H10969   4.785   3.498  15.631
  742TMC3    H110970   0.379   3.577  15.743
  742TMC3    H210971   0.297   3.548  15.329
  742TMC3    C710972   0.483   3.524  15.500
  742TMC3    C810973   0.056   3.441  15.359
  742TMC3    O110974   0.503   3.452  15.402
  742TMC3    O210975   0.091   3.472  15.247
  743MPD2     C10976   2.224   4.235  19.481
  743MPD2    C110977   2.270   4.352  19.431
  743MPD2    C210978   2.405   4.385  19.446
  743MPD2    C310979   2.494   4.281  19.471
  743MPD2    C410980   2.448   4.162  19.517
  743MPD2    C510981   2.312   4.144  19.528
  743MPD2     H10982   2.444   4.470  19.390
  743MPD2    H110983   2.511   4.077  19.543
  743MPD2    H210984   2.118   4.211  19.480
  743MPD2    H310985   2.273   4.050  19.566
  743MPD2     N10986   2.637   4.299  19.452
  743MPD2    H510987   2.668   4.394  19.435
  743MPD2    N110988   2.175   4.434  19.360
  743MPD2    H710989   2.078   4.402  19.353
  744TMC3    C110990   2.107   4.593  19.199
  744TMC3    C210991   2.107   4.728  19.172
  744TMC3    C310992   2.110   4.766  19.042
  744TMC3    C410993   2.104   4.500  19.098
  744TMC3    C510994   2.110   4.544  18.970
  744TMC3    C610995   2.106   4.678  18.940
  744TMC3     C10996   2.202   4.555  19.304
  744TMC3     O10997   2.301   4.622  19.302
  744TMC3     H10998   2.133   4.794  19.253
  744TMC3    H110999   2.120   4.394  19.116
  744TMC3    H211000   2.113   4.705  18.836
  744TMC3    C711001   2.177   4.457  18.877
  744TMC3    C811002   2.073   0.097  19.010
  744TMC3    O111003   2.261   4.516  18.809
  744TMC3    O211004   2.092   0.131  18.893
  745TMC3    C111005   0.534   3.076  13.914
  745TMC3    C211006   0.404   3.028  13.892
  745TMC3    C311007   0.378   2.976  13.768
  745TMC3    C411008   0.626   3.047  13.824
  745TMC3    C511009   0.600   2.995  13.703
  745TMC3    C611010   0.470   2.958  13.670
  745TMC3     C11011   0.511   3.215  13.928
  745TMC3     O11012   0.400   3.250  13.960
  745TMC3     H11013   0.326   3.033  13.966
  745TMC3    H111014   0.724   3.070  13.864
  745TMC3    H211015   0.431   2.932  13.572
  745TMC3    C711016   0.649   3.071  13.588
  745TMC3    C811017   0.246   3.010  13.712
  745TMC3    O111018   0.594   3.046  13.478
  745TMC3    O211019   0.215   2.982  13.597
  746TMC3    C111020   3.147   0.416  11.168
  746TMC3    C211021   3.198   0.411  11.036
  746TMC3    C311022   3.112   0.360  10.944
  746TMC3    C411023   3.019   0.380  11.198
  746TMC3    C511024   2.937   0.336  11.099
  746TMC3    C611025   2.989   0.311  10.970
  746TMC3     C11026   3.174   0.538  11.239
  746TMC3     O11027   3.069   0.598  11.276
  746TMC3     H11028   3.296   0.454  11.016
  746TMC3    H111029   2.982   0.404  11.297
  746TMC3    H211030   2.929   0.284  10.884
  746TMC3    C711031   2.802   0.386  11.106
  746TMC3    C811032   3.138   0.403  10.816
  746TMC3    O111033   2.733   0.334  11.023
  746TMC3    O211034   3.239   0.362  10.759
  747TMC3    C111035   0.525   0.215  11.545
  747TMC3    C211036   0.438   0.125  11.588
  747TMC3    C311037   0.413   0.123  11.720
  747TMC3    C411038   0.600   0.289  11.630
  747TMC3    C511039   0.589   0.265  11.766
  747TMC3    C611040   0.489   0.191  11.816
  747TMC3     C11041   0.524   0.262  11.412
  747TMC3     O11042   0.588   0.363  11.388
  747TMC3     H11043   0.371   0.081  11.515
  747TMC3    H111044   0.669   0.363  11.590
  747TMC3    H211045   0.490   0.176  11.923
  747TMC3    C711046   0.669   0.341  11.858
  747TMC3    C811047   0.296   0.047  11.767
  747TMC3    O111048   0.613   0.397  11.953
  747TMC3    O211049   0.267   4.756  11.695
  748MPD2     C11050   1.636   1.071  19.566
  748MPD2    C111051   1.693   0.962  19.500
  748MPD2    C211052   1.824   0.957  19.471
  748MPD2    C311053   1.909   1.063  19.497
  748MPD2    C411054   1.852   1.178  19.556
  748MPD2    C511055   1.717   1.177  19.587
  748MPD2     H11056   1.871   0.874  19.419
  748MPD2    H111057   1.905   1.271  19.568
  748MPD2    H211058   1.529   1.064  19.583
  748MPD2    H311059   1.676   1.269  19.628
  748MPD2     N11060   2.038   1.047  19.463
  748MPD2    H511061   2.070   0.954  19.438
  748MPD2    N111062   1.605   0.859  19.451
  748MPD2    H711063   1.506   0.882  19.445
  749TMC3    C111064   2.259   1.091  19.411
  749TMC3    C211065   2.302   0.983  19.485
  749TMC3    C311066   2.403   0.919  19.425
  749TMC3    C411067   2.313   1.140  19.301
  749TMC3    C511068   2.429   1.081  19.264
  749TMC3    C611069   2.471   0.969  19.322
  749TMC3     C11070   2.132   1.152  19.446
  749TMC3     O11071   2.112   1.270  19.422
  749TMC3     H11072   2.260   0.948  19.579
  749TMC3    H111073   2.269   1.224  19.249
  749TMC3    H211074   2.568   0.929  19.294
  749TMC3    C711075   2.486   1.100  19.134
  749TMC3    C811076   2.477   0.837  19.518
  749TMC3    O111077   2.427   1.187  19.074
  749TMC3    O211078   2.467   0.868  19.635
  750MPD2     C11079   3.113   2.646  11.612
  750MPD2    C111080   3.006   2.564  11.650
  750MPD2    C211081   3.010   2.425  11.629
  750MPD2    C311082   3.114   2.360  11.561
  750MPD2    C411083   3.225   2.441  11.529
  750MPD2    C511084   3.212   2.582  11.542
  750MPD2     H11085   2.927   2.362  11.660
  750MPD2    H111086   3.316   2.411  11.478
  750MPD2    H211087   3.120   2.753  11.628
  750MPD2    H311088   3.293   2.645  11.508
  750MPD2     N11089   3.122   2.222  11.530
  750MPD2    H511090   3.193   2.186  11.468
  750MPD2    N111091   2.905   2.627  11.721
  750MPD2    H711092   2.939   2.717  11.753
  751TMC3    C111093   3.078   1.985  11.592
  751TMC3    C211094   3.022   1.908  11.692
  751TMC3    C311095   2.987   1.777  11.670
  751TMC3    C411096   3.080   1.933  11.464
  751TMC3    C511097   3.046   1.800  11.444
  751TMC3    C611098   3.001   1.713  11.544
  751TMC3     C11099   3.057   2.129  11.607
  751TMC3     O11100   2.982   2.155  11.701
  751TMC3     H11101   3.018   1.946  11.794
  751TMC3    H111102   3.110   1.992  11.378
  751TMC3    H211103   2.957   1.615  11.528
  751TMC3    C711104   3.079   1.748  11.309
  751TMC3    C811105   2.861   1.742  11.734
  751TMC3    O111106   3.179   1.787  11.255
  751TMC3    O211107   2.826   1.624  11.738
  752TMC3    C111108   1.694   2.277  17.735
  752TMC3    C211109   1.673   2.146  17.708
  752TMC3    C311110   1.630   2.067  17.816
  752TMC3    C411111   1.647   2.330  17.849
  752TMC3    C511112   1.588   2.250  17.951
  752TMC3    C611113   1.590   2.112  17.935
  752TMC3     C11114   1.759   2.369  17.642
  752TMC3     O11115   1.818   2.468  17.689
  752TMC3     H11116   1.703   2.108  17.611
  752TMC3    H111117   1.652   2.437  17.862
  752TMC3    H211118   1.557   2.053  18.020
  752TMC3    C711119   1.522   2.318  18.057
  752TMC3    C811120   1.647   1.926  17.789
  752TMC3    O111121   1.535   2.440  18.064
  752TMC3    O211122   1.727   1.890  17.702
  753TMC3    C111123   3.888   2.937  13.691
  753TMC3    C211124   3.919   2.938  13.822
  753TMC3    C311125   3.902   2.818  13.885
  753TMC3    C411126   3.837   2.834  13.618
  753TMC3    C511127   3.827   2.715  13.687
  753TMC3    C611128   3.869   2.703  13.815
  753TMC3     C11129   3.848   3.066  13.641
  753TMC3     O11130   3.748   3.086  13.577
  753TMC3     H11131   3.931   3.033  13.874
  753TMC3    H111132   3.802   2.847  13.516
  753TMC3    H211133   3.849   2.617  13.877
  753TMC3    C711134   3.812   2.595  13.604
  753TMC3    C811135   3.870   2.827  14.024
  753TMC3    O111136   3.775   2.610  13.489
  753TMC3    O211137   3.785   2.748  14.048
  754MPD2     C11138   2.974   1.796  13.502
  754MPD2    C111139   2.919   1.674  13.499
  754MPD2    C211140   2.785   1.664  13.491
  754MPD2    C311141   2.704   1.770  13.512
  754MPD2    C411142   2.756   1.892  13.520
  754MPD2    C511143   2.893   1.907  13.512
  754MPD2     H11144   2.735   1.571  13.466
  754MPD2    H111145   2.694   1.981  13.518
  754MPD2    H211146   3.079   1.821  13.492
  754MPD2    H311147   2.941   2.004  13.521
  754MPD2     N11148   2.566   1.758  13.523
  754MPD2    H511149   2.510   1.840  13.546
  754MPD2    N111150   3.000   1.568  13.505
  754MPD2    H711151   3.098   1.590  13.489
  755MPD2     C11152   1.947   2.398  13.474
  755MPD2    C111153   1.883   2.285  13.532
  755MPD2    C211154   1.951   2.164  13.526
  755MPD2    C311155   2.065   2.148  13.450
  755MPD2    C411156   2.119   2.254  13.383
  755MPD2    C511157   2.062   2.380  13.402
  755MPD2     H11158   1.913   2.077  13.578
  755MPD2    H111159   2.212   2.253  13.328
  755MPD2    H211160   1.905   2.496  13.496
  755MPD2    H311161   2.115   2.465  13.361
  755MPD2     N11162   2.127   2.013  13.421
  755MPD2    H511163   2.215   2.011  13.369
  755MPD2    N111164   1.778   2.289  13.626
  755MPD2    H711165   1.752   2.203  13.674
  756MPD2     C11166   2.407   3.194  10.114
  756MPD2    C111167   2.318   3.089  10.132
  756MPD2    C211168   2.206   3.077  10.057
  756MPD2    C311169   2.178   3.166   9.952
  756MPD2    C411170   2.278   3.260   9.927
  756MPD2    C511171   2.391   3.271  10.008
  756MPD2     H11172   2.140   2.996  10.085
  756MPD2    H111173   2.275   3.323   9.839
  756MPD2    H211174   2.489   3.219  10.180
  756MPD2    H311175   2.459   3.355  10.000
  756MPD2     N11176   2.055   3.156   9.879
  756MPD2    H511177   2.010   3.067   9.897
  756MPD2    N111178   2.347   2.984  10.225
  756MPD2    H711179   2.281   2.910  10.245
  757MPD2     C11180   1.415   2.590   9.927
  757MPD2    C111181   1.552   2.576   9.940
  757MPD2    C211182   1.639   2.674   9.884
  757MPD2    C311183   1.588   2.783   9.817
  757MPD2    C411184   1.447   2.793   9.812
  757MPD2    C511185   1.367   2.692   9.855
  757MPD2     H11186   1.747   2.669   9.884
  757MPD2    H111187   1.387   2.878   9.781
  757MPD2    H211188   1.351   2.519   9.978
  757MPD2    H311189   1.262   2.718   9.847
  757MPD2     N11190   1.671   2.886   9.763
  757MPD2    H511191   1.772   2.872   9.765
  757MPD2    N111192   1.591   2.454   9.995
  757MPD2    H711193   1.518   2.385  10.004
  758MPD2     C11194   2.354   1.693  16.161
  758MPD2    C111195   2.447   1.655  16.258
  758MPD2    C211196   2.420   1.670  16.388
  758MPD2    C311197   2.296   1.708  16.434
  758MPD2    C411198   2.208   1.755  16.339
  758MPD2    C511199   2.228   1.725  16.205
  758MPD2     H11200   2.493   1.656  16.468
  758MPD2    H111201   2.113   1.798  16.367
  758MPD2    H211202   2.368   1.683  16.054
  758MPD2    H311203   2.166   1.763  16.125
  758MPD2     N11204   2.255   1.709  16.570
  758MPD2    H511205   2.176   1.763  16.603
  758MPD2    N111206   2.575   1.621  16.211
  758MPD2    H711207   2.585   1.602  16.112
  759MPD2     C11208   1.317   0.139  10.278
  759MPD2    C111209   1.324   0.205  10.403
  759MPD2    C211210   1.371   0.337  10.405
  759MPD2    C311211   1.419   0.396  10.288
  759MPD2    C411212   1.412   0.332  10.170
  759MPD2    C511213   1.359   0.207  10.169
  759MPD2     H11214   1.380   0.396  10.495
  759MPD2    H111215   1.439   0.385  10.080
  759MPD2    H211216   1.270   0.042  10.266
  759MPD2    H311217   1.354   0.144  10.081
  759MPD2     N11218   1.465   0.530  10.297
  759MPD2    H511219   1.435   0.581  10.379
  759MPD2    N111220   1.303   0.143  10.527
  759MPD2    H711221   1.304   0.204  10.607
  760MPD2     C11222   1.020   2.019  11.669
  760MPD2    C111223   1.010   2.023  11.805
  760MPD2    C211224   1.036   1.898  11.869
  760MPD2    C311225   1.071   1.779  11.797
  760MPD2    C411226   1.079   1.784  11.661
  760MPD2    C511227   1.058   1.907  11.599
  760MPD2     H11228   1.032   1.897  11.977
  760MPD2    H111229   1.089   1.691  11.607
  760MPD2    H211230   1.016   2.112  11.615
  760MPD2    H311231   1.066   1.906  11.491
  760MPD2     N11232   1.107   1.663  11.857
  760MPD2    H511233   1.145   1.591  11.796
  760MPD2    N111234   0.967   2.136  11.879
  760MPD2    H711235   0.936   2.128  11.975
  761MPD2     C11236   2.393   1.849  11.890
  761MPD2    C111237   2.428   1.754  11.799
  761MPD2    C211238   2.565   1.746  11.771
  761MPD2    C311239   2.655   1.839  11.825
  761MPD2    C411240   2.605   1.934  11.910
  761MPD2    C511241   2.476   1.942  11.953
  761MPD2     H11242   2.598   1.677  11.694
  761MPD2    H111243   2.676   2.005  11.952
  761MPD2    H211244   2.290   1.849  11.925
  761MPD2    H311245   2.438   2.023  12.014
  761MPD2     N11246   2.795   1.838  11.803
  761MPD2    H511247   2.850   1.910  11.848
  761MPD2    N111248   2.332   1.662  11.756
  761MPD2    H711249   2.242   1.661  11.803
  762MPD2     C11250   2.612   0.951  11.583
  762MPD2    C111251   2.566   1.047  11.494
  762MPD2    C211252   2.644   1.073  11.386
  762MPD2    C311253   2.762   1.008  11.364
  762MPD2    C411254   2.813   0.917  11.454
  762MPD2    C511255   2.731   0.893  11.563
  762MPD2     H11256   2.614   1.151  11.317
  762MPD2    H111257   2.902   0.857  11.434
  762MPD2    H211258   2.566   0.933  11.679
  762MPD2    H311259   2.760   0.813  11.630
  762MPD2     N11260   2.835   1.043  11.251
  762MPD2    H511261   2.779   1.092  11.182
  762MPD2    N111262   2.443   1.114  11.523
  762MPD2    H711263   2.406   1.080  11.611
  763MPD2     C11264   4.633   1.528  16.372
  763MPD2    C111265   4.513   1.588  16.345
  763MPD2    C211266   4.489   1.719  16.395
  763MPD2    C311267   4.590   1.769  16.481
  763MPD2    C411268   4.704   1.703  16.517
  763MPD2    C511269   4.729   1.589  16.446
  763MPD2     H11270   4.397   1.768  16.364
  763MPD2    H111271   4.775   1.742  16.589
  763MPD2    H211272   4.662   1.436  16.321
  763MPD2    H311273   0.010   1.532  16.479
  763MPD2     N11274   4.580   1.906  16.525
  763MPD2    H511275   4.655   1.966  16.556
  763MPD2    N111276   4.421   1.527  16.260
  763MPD2    H711277   4.339   1.581  16.237
  764MPD2     C11278   2.243   3.455  17.726
  764MPD2    C111279   2.145   3.393  17.657
  764MPD2    C211280   2.070   3.292  17.722
  764MPD2    C311281   2.082   3.266  17.857
  764MPD2    C411282   2.194   3.324  17.918
  764MPD2    C511283   2.270   3.419  17.859
  764MPD2     H11284   1.998   3.236  17.664
  764MPD2    H111285   2.214   3.306  18.023
  764MPD2    H211286   2.300   3.536  17.681
  764MPD2    H311287   2.342   3.475  17.918
  764MPD2     N11288   1.992   3.183  17.923
  764MPD2    H511289   1.915   3.151  17.865
  764MPD2    N111290   2.121   3.415  17.518
  764MPD2    H711291   2.036   3.366  17.489
  765MPD2     C11292   1.857   0.908  16.036
  765MPD2    C111293   1.944   0.989  16.100
  765MPD2    C211294   2.078   0.958  16.112
  765MPD2    C311295   2.125   0.841  16.068
  765MPD2    C411296   2.039   0.761  15.998
  765MPD2    C511297   1.905   0.790  15.981
  765MPD2     H11298   2.148   1.026  16.161
  765MPD2    H111299   2.072   0.674  15.942
  765MPD2    H211300   1.750   0.925  16.029
  765MPD2    H311301   1.842   0.722  15.925
  765MPD2     N11302   2.263   0.806  16.090
  765MPD2    H511303   2.328   0.867  16.137
  765MPD2    N111304   1.891   1.104  16.162
  765MPD2    H711305   1.791   1.122  16.155
  766MPD2     C11306   1.349   1.330  15.847
  766MPD2    C111307   1.442   1.255  15.908
  766MPD2    C211308   1.505   1.161  15.830
  766MPD2    C311309   1.463   1.138  15.700
  766MPD2    C411310   1.360   1.208  15.639
  766MPD2    C511311   1.306   1.302  15.723
  766MPD2     H11312   1.588   1.106  15.872
  766MPD2    H111313   1.318   1.193  15.540
  766MPD2    H211314   1.300   1.417  15.888
  766MPD2    H311315   1.226   1.360  15.679
  766MPD2     N11316   1.535   1.060  15.605
  766MPD2    H511317   1.527   1.082  15.506
  766MPD2    N111318   1.491   1.303  16.037
  766MPD2    H711319   1.451   1.387  16.076
  767MPD2     C11320   1.173   1.435  15.324
  767MPD2    C111321   1.302   1.382  15.315
  767MPD2    C211322   1.323   1.275  15.225
  767MPD2    C311323   1.217   1.227  15.148
  767MPD2    C411324   1.089   1.279  15.168
  767MPD2    C511325   1.064   1.386  15.250
  767MPD2     H11326   1.423   1.235  15.213
  767MPD2    H111327   1.011   1.231  15.110
  767MPD2    H211328   1.151   1.518  15.390
  767MPD2    H311329   0.969   1.437  15.259
  767MPD2     N11330   1.246   1.133  15.048
  767MPD2    H511331   1.336   1.088  15.059
  767MPD2    N111332   1.399   1.439  15.399
  767MPD2    H711333   1.371   1.514  15.462
  768MPD2     C11334   2.507   0.192  10.676
  768MPD2    C111335   2.429   0.162  10.787
  768MPD2    C211336   2.488   0.076  10.877
  768MPD2    C311337   2.623   0.044  10.876
  768MPD2    C411338   2.701   0.086  10.772
  768MPD2    C511339   2.645   0.153  10.674
  768MPD2     H11340   2.433   0.054  10.967
  768MPD2    H111341   2.807   0.062  10.773
  768MPD2    H211342   2.468   0.267  10.608
  768MPD2    H311343   2.710   0.190  10.596
  768MPD2     N11344   2.688   4.784  10.987
  768MPD2    H511345   2.789   4.787  10.992
  768MPD2    N111346   2.307   0.228  10.828
  768MPD2    H711347   2.274   0.216  10.923
  769MPD2     C11348   3.494   2.273  15.040
  769MPD2    C111349   3.428   2.307  15.159
  769MPD2    C211350   3.497   2.353  15.267
  769MPD2    C311351   3.635   2.374  15.264
  769MPD2    C411352   3.696   2.352  15.147
  769MPD2    C511353   3.628   2.299  15.042
  769MPD2     H11354   3.447   2.365  15.362
  769MPD2    H111355   3.803   2.365  15.138
  769MPD2    H211356   3.448   2.219  14.958
  769MPD2    H311357   3.685   2.273  14.954
  769MPD2     N11358   3.695   2.429  15.379
  769MPD2    H511359   3.635   2.438  15.460
  769MPD2    N111360   3.289   2.292  15.164
  769MPD2    H711361   3.249   2.258  15.077
  770MPD2     C11362   2.507   1.803  15.518
  770MPD2    C111363   2.574   1.773  15.400
  770MPD2    C211364   2.659   1.870  15.351
  770MPD2    C311365   2.668   1.993  15.414
  770MPD2    C411366   2.586   2.025  15.521
  770MPD2    C511367   2.508   1.925  15.573
  770MPD2     H11368   2.718   1.845  15.263
  770MPD2    H111369   2.583   2.126  15.560
  770MPD2    H211370   2.445   1.726  15.563
  770MPD2    H311371   2.458   1.939  15.668
  770MPD2     N11372   2.754   2.086  15.356
  770MPD2    H511373   2.797   2.062  15.267
  770MPD2    N111374   2.558   1.642  15.347
  770MPD2    H711375   2.498   1.570  15.386
  771MPD2     C11376   4.340   0.488  14.051
  771MPD2    C111377   4.277   0.601  14.007
  771MPD2    C211378   4.146   0.586  13.953
  771MPD2    C311379   4.095   0.460  13.936
  771MPD2    C411380   4.164   0.345  13.979
  771MPD2    C511381   4.283   0.363  14.040
  771MPD2     H11382   4.091   0.668  13.907
  771MPD2    H111383   4.125   0.246  13.958
  771MPD2    H211384   4.437   0.495  14.099
  771MPD2    H311385   4.334   0.283  14.093
  771MPD2     N11386   3.976   0.457  13.859
  771MPD2    H511387   3.950   0.546  13.819
  771MPD2    N111388   4.325   0.735  14.014
  771MPD2    H711389   4.262   0.802  13.971
  772MPD2     C11390   3.971   1.339  13.935
  772MPD2    C111391   3.980   1.223  14.011
  772MPD2    C211392   3.862   1.151  14.045
  772MPD2    C311393   3.737   1.210  14.018
  772MPD2    C411394   3.735   1.336  13.966
  772MPD2    C511395   3.849   1.399  13.921
  772MPD2     H11396   3.864   1.046  14.072
  772MPD2    H111397   3.647   1.395  13.945
  772MPD2    H211398   4.056   1.402  13.910
  772MPD2    H311399   3.836   1.499  13.882
  772MPD2     N11400   3.613   1.146  14.050
  772MPD2    H511401   3.533   1.205  14.032
  772MPD2    N111402   4.106   1.167  14.048
  772MPD2    H711403   4.102   1.087  14.109
  773MPD2     C11404   3.436   1.973  17.858
  773MPD2    C111405   3.322   1.889  17.868
  773MPD2    C211406   3.315   1.789  17.959
  773MPD2    C311407   3.415   1.762  18.041
  773MPD2    C411408   3.530   1.840  18.033
  773MPD2    C511409   3.538   1.942  17.945
  773MPD2     H11410   3.227   1.724  17.964
  773MPD2    H111411   3.620   1.828  18.093
  773MPD2    H211412   3.454   2.065  17.804
  773MPD2    H311413   3.629   2.001  17.957
  773MPD2     N11414   3.396   1.653  18.127
  773MPD2    H511415   3.306   1.606  18.133
  773MPD2    N111416   3.213   1.894  17.777
  773MPD2    H711417   3.133   1.835  17.798
  774MPD2     C11418   2.268   0.738  13.513
  774MPD2    C111419   2.234   0.840  13.610
  774MPD2    C211420   2.309   0.957  13.623
  774MPD2    C311421   2.423   0.977  13.550
  774MPD2    C411422   2.458   0.881  13.460
  774MPD2    C511423   2.381   0.767  13.446
  774MPD2     H11424   2.285   1.031  13.699
  774MPD2    H111425   2.548   0.882  13.399
  774MPD2    H211426   2.205   0.653  13.491
  774MPD2    H311427   2.410   0.690  13.376
  774MPD2     N11428   2.514   1.079  13.587
  774MPD2    H511429   2.477   1.139  13.661
  774MPD2    N111430   2.144   0.796  13.708
  774MPD2    H711431   2.120   0.698  13.703
  775MPD2     C11432   3.990   2.180  16.043
  775MPD2    C111433   3.956   2.305  16.075
  775MPD2    C211434   4.028   2.418  16.035
  775MPD2    C311435   4.151   2.401  15.979
  775MPD2    C411436   4.194   2.272  15.947
  775MPD2    C511437   4.111   2.169  15.983
  775MPD2     H11438   3.991   2.514  16.067
  775MPD2    H111439   4.295   2.266  15.908
  775MPD2    H211440   3.947   2.085  16.075
  775MPD2    H311441   4.151   2.069  15.971
  775MPD2     N11442   4.226   2.515  15.937
  775MPD2    H511443   4.319   2.497  15.901
  775MPD2    N111444   3.829   2.315  16.140
  775MPD2    H711445   3.764   2.238  16.135
  776MPD2     C11446   2.893   3.020  12.198
  776MPD2    C111447   2.811   3.059  12.107
  776MPD2    C211448   2.790   3.193  12.073
  776MPD2    C311449   2.841   3.280  12.157
  776MPD2    C411450   2.926   3.241  12.251
  776MPD2    C511451   2.958   3.114  12.268
  776MPD2     H11452   2.715   3.219  11.999
  776MPD2    H111453   2.968   3.326  12.304
  776MPD2    H211454   2.898   2.920  12.241
  776MPD2    H311455   3.025   3.079  12.346
  776MPD2     N11456   2.822   3.414  12.137
  776MPD2    H511457   2.885   3.471  12.192
  776MPD2    N111458   2.740   2.962  12.037
  776MPD2    H711459   2.765   2.866  12.058
  777MPD2     C11460   2.884   0.145  18.701
  777MPD2    C111461   2.837   0.035  18.770
  777MPD2    C211462   2.797   4.726  18.703
  777MPD2    C311463   2.816   4.723  18.563
  777MPD2    C411464   2.873   0.019  18.492
  777MPD2    C511465   2.902   0.134  18.560
  777MPD2     H11466   2.750   4.648  18.762
  777MPD2    H111467   2.903   0.006  18.388
  777MPD2    H211468   2.910   0.235  18.755
  777MPD2    H311469   2.944   0.217  18.503
  777MPD2     N11470   2.766   4.604  18.493
  777MPD2    H511471   2.723   4.531  18.549
  777MPD2    N111472   2.827   0.042  18.910
  777MPD2    H711473   2.841   0.134  18.949
  778MPD2     C11474   4.064   0.487  15.201
  778MPD2    C111475   4.040   0.389  15.106
  778MPD2    C211476   4.055   0.421  14.970
  778MPD2    C311477   4.093   0.549  14.934
  778MPD2    C411478   4.137   0.634  15.029
  778MPD2    C511479   4.127   0.605  15.163
  778MPD2     H11480   4.039   0.336  14.905
  778MPD2    H111481   4.176   0.730  14.997
  778MPD2    H211482   4.049   0.465  15.306
  778MPD2    H311483   4.156   0.674  15.242
  778MPD2     N11484   4.114   0.586  14.795
  778MPD2    H511485   4.095   0.513  14.727
  778MPD2    N111486   3.974   0.261  15.133
  778MPD2    H711487   3.963   0.207  15.049
  779MPD2     C11488   3.734   4.016  14.349
  779MPD2    C111489   3.870   4.043  14.364
  779MPD2    C211490   3.917   4.176  14.332
  779MPD2    C311491   3.834   4.270  14.272
  779MPD2    C411492   3.704   4.230  14.246
  779MPD2    C511493   3.655   4.109  14.282
  779MPD2     H11494   4.024   4.193  14.331
  779MPD2    H111495   3.643   4.293  14.181
  779MPD2    H211496   3.685   3.921  14.365
  779MPD2    H311497   3.554   4.086  14.250
  779MPD2     N11498   3.885   4.389  14.226
  779MPD2    H511499   3.975   4.416  14.262
  779MPD2    N111500   3.963   3.943  14.418
  779MPD2    H711501   4.060   3.971  14.414
  780MPD2     C11502   3.312   3.902  18.905
  780MPD2    C111503   3.263   3.854  18.791
  780MPD2    C211504   3.312   3.897  18.667
  780MPD2    C311505   3.419   3.980  18.663
  780MPD2    C411506   3.467   4.034  18.782
  780MPD2    C511507   3.399   4.006  18.894
  780MPD2     H11508   3.278   3.849  18.576
  780MPD2    H111509   3.553   4.099  18.785
  780MPD2    H211510   3.279   3.866  19.002
  780MPD2    H311511   3.429   4.051  18.988
  780MPD2     N11512   3.468   4.022  18.535
  780MPD2    H511513   3.429   3.985  18.449
  780MPD2    N111514   3.163   3.753  18.805
  780MPD2    H711515   3.151   3.711  18.896
  781MPD2     C11516   0.347   1.017  12.121
  781MPD2    C111517   0.430   1.043  12.228
  781MPD2    C211518   0.550   1.111  12.206
  781MPD2    C311519   0.581   1.146  12.076
  781MPD2    C411520   0.492   1.127  11.970
  781MPD2    C511521   0.375   1.065  11.993
  781MPD2     H11522   0.605   1.146  12.293
  781MPD2    H111523   0.516   1.171  11.873
  781MPD2    H211524   0.249   0.976  12.143
  781MPD2    H311525   0.298   1.052  11.917
  781MPD2     N11526   0.697   1.213  12.041
  781MPD2    H511527   0.704   1.262  11.952
  781MPD2    N111528   0.400   1.008  12.362
  781MPD2    H711529   0.472   1.027  12.430
  782MPD2     C11530   2.989   1.961  10.562
  782MPD2    C111531   3.130   1.963  10.553
  782MPD2    C211532   3.203   2.062  10.613
  782MPD2    C311533   3.135   2.174  10.655
  782MPD2    C411534   2.997   2.184  10.647
  782MPD2    C511535   2.927   2.078  10.597
  782MPD2     H11536   3.309   2.054  10.631
  782MPD2    H111537   2.938   2.262  10.693
  782MPD2    H211538   2.930   1.875  10.532
  782MPD2    H311539   2.820   2.083  10.581
  782MPD2     N11540   3.213   2.270  10.720
  782MPD2    H511541   3.314   2.269  10.715
  782MPD2    N111542   3.194   1.849  10.507
  782MPD2    H711543   3.132   1.770  10.492
  783MPD2     C11544   2.892   1.462  11.147
  783MPD2    C111545   2.993   1.559  11.165
  783MPD2    C211546   3.085   1.574  11.062
  783MPD2    C311547   3.067   1.506  10.941
  783MPD2    C411548   2.963   1.419  10.925
  783MPD2    C511549   2.872   1.400  11.026
  783MPD2     H11550   3.169   1.639  11.077
  783MPD2    H111551   2.945   1.369  10.831
  783MPD2    H211552   2.817   1.438  11.222
  783MPD2    H311553   2.788   1.332  11.016
  783MPD2     N11554   3.168   1.529  10.845
  783MPD2    H511555   3.234   1.605  10.858
  783MPD2    N111556   2.998   1.635  11.280
  783MPD2    H711557   2.923   1.633  11.348
  784MPD2     C11558   1.076   2.481  19.199
  784MPD2    C111559   1.070   2.606  19.259
  784MPD2    C211560   0.992   2.710  19.213
  784MPD2    C311561   0.897   2.680  19.118
  784MPD2    C411562   0.902   2.560  19.043
  784MPD2    C511563   0.997   2.461  19.091
  784MPD2     H11564   0.985   2.806  19.263
  784MPD2    H111565   0.834   2.541  18.961
  784MPD2    H211566   1.136   2.397  19.232
  784MPD2    H311567   1.006   2.366  19.040
  784MPD2     N11568   0.797   2.785  19.082
  784MPD2    H511569   0.824   2.879  19.108
  784MPD2    N111570   1.150   2.638  19.369
  784MPD2    H711571   1.133   2.731  19.405
  785MPD2     C11572   1.356   0.496  11.571
  785MPD2    C111573   1.345   0.570  11.458
  785MPD2    C211574   1.261   0.521  11.354
  785MPD2    C311575   1.200   0.400  11.372
  785MPD2    C411576   1.211   0.325  11.492
  785MPD2    C511577   1.292   0.379  11.591
  785MPD2     H11578   1.235   0.580  11.267
  785MPD2    H111579   1.169   0.226  11.502
  785MPD2    H211580   1.413   0.528  11.656
  785MPD2    H311581   1.310   0.316  11.678
  785MPD2     N11582   1.119   0.370  11.262
  785MPD2    H511583   1.110   0.435  11.184
  785MPD2    N111584   1.395   0.701  11.459
  785MPD2    H711585   1.420   0.732  11.552
  786MPD2     C11586   4.478   3.177  15.141
  786MPD2    C111587   4.597   3.233  15.091
  786MPD2    C211588   4.694   3.279  15.178
  786MPD2    C311589   4.671   3.291  15.315
  786MPD2    C411590   4.560   3.232  15.369
  786MPD2    C511591   4.470   3.172  15.282
  786MPD2     H11592   4.787   3.306  15.129
  786MPD2    H111593   4.537   3.221  15.474
  786MPD2    H211594   4.400   3.124  15.089
  786MPD2    H311595   4.381   3.124  15.320
  786MPD2     N11596   4.764   3.352  15.401
  786MPD2    H511597   4.755   3.331  15.500
  786MPD2    N111598   4.629   3.219  14.952
  786MPD2    H711599   4.727   3.233  14.930
  787MPD2     C11600   0.173   2.693  14.988
  787MPD2    C111601   0.117   2.695  14.863
  787MPD2    C211602   0.152   2.596  14.776
  787MPD2    C311603   0.232   2.490  14.814
  787MPD2    C411604   0.282   2.480  14.945
  787MPD2    C511605   0.253   2.584  15.027
  787MPD2     H11606   0.135   2.596  14.669
  787MPD2    H111607   0.341   2.395  14.976
  787MPD2    H211608   0.163   2.767  15.066
  787MPD2    H311609   0.298   2.590  15.125
  787MPD2     N11610   0.241   2.380  14.718
  787MPD2    H511611   0.199   2.391  14.626
  787MPD2    N111612   0.039   2.807  14.825
  787MPD2    H711613   0.034   2.880  14.896
  788MPD2     C11614   1.541   1.768  19.192
  788MPD2    C111615   1.658   1.747  19.120
  788MPD2    C211616   1.697   1.846  19.031
  788MPD2    C311617   1.634   1.969  19.033
  788MPD2    C411618   1.531   1.993  19.115
  788MPD2    C511619   1.478   1.891  19.187
  788MPD2     H11620   1.787   1.832  18.972
  788MPD2    H111621   1.487   2.092  19.109
  788MPD2    H211622   1.488   1.697  19.254
  788MPD2    H311623   1.384   1.908  19.238
  788MPD2     N11624   1.680   2.085  18.966
  788MPD2    H511625   1.630   2.169  18.995
  788MPD2    N111626   1.724   1.622  19.118
  788MPD2    H711627   1.805   1.618  19.057
  789MPD2     C11628   2.067   1.264  16.589
  789MPD2    C111629   1.989   1.166  16.635
  789MPD2    C211630   1.910   1.196  16.747
  789MPD2    C311631   1.908   1.327  16.797
  789MPD2    C411632   1.979   1.428  16.741
  789MPD2    C511633   2.070   1.389  16.645
  789MPD2     H11634   1.854   1.110  16.782
  789MPD2    H111635   1.969   1.529  16.777
  789MPD2    H211636   2.140   1.248  16.509
  789MPD2    H311637   2.133   1.460  16.591
  789MPD2     N11638   1.835   1.370  16.909
  789MPD2    H511639   1.856   1.461  16.949
  789MPD2    N111640   1.999   1.031  16.589
  789MPD2    H711641   1.917   0.981  16.624
  790MPD2     C11642   3.008   3.223  14.017
  790MPD2    C111643   3.002   3.087  14.014
  790MPD2    C211644   2.939   3.012  13.911
  790MPD2    C311645   2.894   3.073  13.805
  790MPD2    C411646   2.906   3.211  13.797
  790MPD2    C511647   2.965   3.282  13.900
  790MPD2     H11648   2.932   2.904  13.909
  790MPD2    H111649   2.873   3.264  13.708
  790MPD2    H211650   3.067   3.283  14.085
  790MPD2    H311651   2.975   3.390  13.902
  790MPD2     N11652   2.837   3.002  13.702
  790MPD2    H511653   2.832   2.901  13.715
  790MPD2    N111654   3.056   3.029  14.129
  790MPD2    H711655   3.086   3.085  14.208
  791MPD2     C11656   2.281   2.951  13.060
  791MPD2    C111657   2.318   2.858  13.153
  791MPD2    C211658   2.241   2.744  13.168
  791MPD2    C311659   2.127   2.725  13.098
  791MPD2    C411660   2.084   2.823  13.007
  791MPD2    C511661   2.158   2.942  13.004
  791MPD2     H11662   2.265   2.667  13.241
  791MPD2    H111663   1.990   2.817  12.953
  791MPD2    H211664   2.353   3.028  13.035
  791MPD2    H311665   2.113   3.014  12.937
  791MPD2     N11666   2.065   2.601  13.110
  791MPD2    H511667   2.117   2.529  13.159
  791MPD2    N111668   2.438   2.876  13.224
  791MPD2    H711669   2.481   2.967  13.209
  792MPD2     C11670   2.968   3.031  11.495
  792MPD2    C111671   2.857   3.099  11.552
  792MPD2    C211672   2.734   3.037  11.557
  792MPD2    C311673   2.718   2.914  11.495
  792MPD2    C411674   2.825   2.853  11.447
  792MPD2    C511675   2.950   2.905  11.446
  792MPD2     H11676   2.648   3.088  11.598
  792MPD2    H111677   2.821   2.755  11.401
  792MPD2    H211678   3.068   3.069  11.478
  792MPD2    H311679   3.031   2.861  11.390
  792MPD2     N11680   2.602   2.838  11.493
  792MPD2    H511681   2.607   2.744  11.457
  792MPD2    N111682   2.895   3.227  11.598
  792MPD2    H711683   2.993   3.254  11.588
  793MPD2     C11684   2.024   2.660  10.855
  793MPD2    C111685   2.142   2.726  10.883
  793MPD2    C211686   2.175   2.762  11.013
  793MPD2    C311687   2.083   2.740  11.112
  793MPD2    C411688   1.960   2.681  11.080
  793MPD2    C511689   1.936   2.633  10.957
  793MPD2     H11690   2.263   2.814  11.050
  793MPD2    H111691   1.880   2.652  11.148
  793MPD2    H211692   1.991   2.637  10.755
  793MPD2    H311693   1.848   2.576  10.930
  793MPD2     N11694   2.119   2.777  11.244
  793MPD2    H511695   2.212   2.812  11.259
  793MPD2    N111696   2.238   2.763  10.787
  793MPD2    H711697   2.327   2.805  10.811
  794MPD2     C11698   2.719   2.461  17.463
  794MPD2    C111699   2.689   2.344  17.399
  794MPD2    C211700   2.573   2.334  17.325
  794MPD2    C311701   2.497   2.446  17.308
  794MPD2    C411702   2.537   2.561  17.365
  794MPD2    C511703   2.645   2.572  17.447
  794MPD2     H11704   2.557   2.243  17.269
  794MPD2    H111705   2.477   2.650  17.349
  794MPD2    H211706   2.806   2.466  17.527
  794MPD2    H311707   2.669   2.666  17.496
  794MPD2     N11708   2.383   2.448  17.220
  794MPD2    H511709   2.323   2.527  17.241
  794MPD2    N111710   2.766   2.228  17.393
  794MPD2    H711711   2.738   2.146  17.341
  795MPD2     C11712   0.471   4.527  13.618
  795MPD2    C111713   0.426   4.424  13.539
  795MPD2    C211714   0.503   4.311  13.515
  795MPD2    C311715   0.629   4.308  13.569
  795MPD2    C411716   0.671   4.403  13.655
  795MPD2    C511717   0.588   4.504  13.688
  795MPD2     H11718   0.474   4.234  13.445
  795MPD2    H111719   0.772   4.406  13.695
  795MPD2    H211720   0.417   4.619  13.638
  795MPD2    H311721   0.634   4.580  13.750
  795MPD2     N11722   0.708   4.200  13.539
  795MPD2    H511723   0.660   4.121  13.497
  795MPD2    N111724   0.303   4.428  13.472
  795MPD2    H711725   0.261   4.340  13.443
  796MPD2     C11726   4.674   0.933  15.850
  796MPD2    C111727   4.724   0.979  15.972
  796MPD2    C211728   4.729   1.112  15.996
  796MPD2    C311729   4.692   1.201  15.898
  796MPD2    C411730   4.641   1.153  15.781
  796MPD2    C511731   4.629   1.017  15.753
  796MPD2     H11732   4.755   1.147  16.095
  796MPD2    H111733   4.604   1.227  15.711
  796MPD2    H211734   4.673   0.825  15.840
  796MPD2    H311735   4.576   0.979  15.667
  796MPD2     N11736   4.696   1.341  15.929
  796MPD2    H511737   4.737   1.359  16.021
  796MPD2    N111738   4.758   0.880  16.065
  796MPD2    H711739   4.724   0.785  16.055
  797MPD2     C11740   0.671   0.613  17.565
  797MPD2    C111741   0.692   0.747  17.575
  797MPD2    C211742   0.656   0.828  17.471
  797MPD2    C311743   0.609   0.776  17.353
  797MPD2    C411744   0.609   0.641  17.334
  797MPD2    C511745   0.639   0.567  17.443
  797MPD2     H11746   0.654   0.936  17.487
  797MPD2    H111747   0.574   0.591  17.244
  797MPD2    H211748   0.689   0.542  17.644
  797MPD2    H311749   0.624   0.460  17.429
  797MPD2     N11750   0.563   0.858  17.248
  797MPD2    H511751   0.549   0.808  17.160
  797MPD2    N111752   0.754   0.812  17.684
  797MPD2    H711753   0.761   0.911  17.666
  798MPD2     C11754   0.539   1.483  17.524
  798MPD2    C111755   0.636   1.408  17.467
  798MPD2    C211756   0.709   1.318  17.548
  798MPD2    C311757   0.692   1.321  17.682
  798MPD2    C411758   0.602   1.409  17.741
  798MPD2    C511759   0.525   1.484  17.660
  798MPD2     H11760   0.788   1.255  17.510
  798MPD2    H111761   0.584   1.404  17.847
  798MPD2    H211762   0.473   1.541  17.460
  798MPD2    H311763   0.441   1.544  17.696
  798MPD2     N11764   0.774   1.234  17.755
  798MPD2    H511765   0.827   1.164  17.703
  798MPD2    N111766   0.641   1.408  17.322
  798MPD2    H711767   0.564   1.456  17.277
  799MPD2     C11768   4.713   2.264  14.948
  799MPD2    C111769   4.633   2.186  14.858
  799MPD2    C211770   4.573   2.253  14.752
  799MPD2    C311771   4.587   2.389  14.736
  799MPD2    C411772   4.661   2.458  14.831
  799MPD2    C511773   4.716   2.399  14.937
  799MPD2     H11774   4.525   2.190  14.678
  799MPD2    H111775   4.659   2.566  14.826
  799MPD2    H211776   4.767   2.217  15.029
  799MPD2    H311777   4.771   2.468  15.000
  799MPD2     N11778   4.531   2.472  14.643
  799MPD2    H511779   4.546   2.572  14.653
  799MPD2    N111780   4.615   2.046  14.863
  799MPD2    H711781   4.563   2.001  14.788
  800MPD2     C11782   0.040   3.465  13.640
  800MPD2    C111783   0.082   3.458  13.773
  800MPD2    C211784   0.112   3.333  13.820
  800MPD2    C311785   0.115   3.222  13.737
  800MPD2    C411786   0.057   3.232  13.611
  800MPD2    C511787   0.018   3.350  13.561
  800MPD2     H11788   0.161   3.321  13.916
  800MPD2    H111789   0.052   3.146  13.546
  800MPD2    H211790   0.025   3.563  13.594
  800MPD2    H311791   4.794   3.365  13.458
  800MPD2     N11792   0.195   3.115  13.785
  800MPD2    H511793   0.243   3.147  13.869
  800MPD2    N111794   0.129   3.578  13.822
  800MPD2    H711795   0.126   3.658  13.760
  801MPD2     C11796   0.283   4.275  13.830
  801MPD2    C111797   0.217   4.167  13.867
  801MPD2    C211798   0.097   4.187  13.939
  801MPD2    C311799   0.058   4.317  13.980
  801MPD2    C411800   0.132   4.426  13.947
  801MPD2    C511801   0.245   4.398  13.867
  801MPD2     H11802   0.041   4.101  13.973
  801MPD2    H111803   0.116   4.530  13.973
  801MPD2    H211804   0.367   4.279  13.762
  801MPD2    H311805   0.298   4.482  13.824
  801MPD2     N11806   4.747   4.333  14.059
  801MPD2    H511807   4.736   4.430  14.088
  801MPD2    N111808   0.261   4.039  13.834
  801MPD2    H711809   0.197   3.967  13.867
  802MPD2     C11810   4.146   4.716  17.615
  802MPD2    C111811   4.235   4.700  17.721
  802MPD2    C211812   4.296   4.576  17.742
  802MPD2    C311813   4.275   4.469  17.656
  802MPD2    C411814   4.187   4.487  17.556
  802MPD2    C511815   4.123   4.609  17.536
  802MPD2     H11816   4.361   4.561  17.827
  802MPD2    H111817   4.183   4.411  17.478
  802MPD2    H211818   4.084   0.001  17.604
  802MPD2    H311819   4.059   4.621  17.450
  802MPD2     N11820   4.363   4.358  17.669
  802MPD2    H511821   4.443   4.359  17.732
  802MPD2    N111822   4.259   4.799  17.824
  802MPD2    H711823   4.296   4.765  17.912
  803MPD2     C11824   0.916   2.755  12.388
  803MPD2    C111825   1.030   2.760  12.453
  803MPD2    C211826   1.041   2.687  12.575
  803MPD2    C311827   0.940   2.610  12.621
  803MPD2    C411828   0.846   2.571  12.524
  803MPD2    C511829   0.825   2.659  12.420
  803MPD2     H11830   1.126   2.720  12.633
  803MPD2    H111831   0.770   2.497  12.547
  803MPD2    H211832   0.904   2.807  12.293
  803MPD2    H311833   0.745   2.643  12.349
  803MPD2     N11834   0.935   2.554  12.753
  803MPD2    H511835   0.865   2.481  12.764
  803MPD2    N111836   1.131   2.852  12.424
  803MPD2    H711837   1.206   2.860  12.492
  804MPD2     C11838   0.376   3.989  16.988
  804MPD2    C111839   0.405   3.964  17.125
  804MPD2    C211840   0.486   4.054  17.194
  804MPD2    C311841   0.541   4.158  17.114
  804MPD2    C411842   0.523   4.172  16.977
  804MPD2    C511843   0.445   4.079  16.916
  804MPD2     H11844   0.506   4.047  17.301
  804MPD2    H111845   0.562   4.253  16.916
  804MPD2    H211846   0.311   3.919  16.936
  804MPD2    H311847   0.434   4.091  16.808
  804MPD2     N11848   0.608   4.258  17.191
  804MPD2    H511849   0.610   4.233  17.290
  804MPD2    N111850   0.366   3.851  17.197
  804MPD2    H711851   0.406   3.841  17.289
  805MPD2     C11852   4.427   2.151  15.630
  805MPD2    C111853   4.476   2.280  15.638
  805MPD2    C211854   4.593   2.306  15.694
  805MPD2    C311855   4.676   2.211  15.756
  805MPD2    C411856   4.629   2.084  15.745
  805MPD2    C511857   4.510   2.059  15.684
  805MPD2     H11858   4.631   2.407  15.686
  805MPD2    H111859   4.677   1.995  15.785
  805MPD2    H211860   4.338   2.118  15.578
  805MPD2    H311861   4.466   1.960  15.688
  805MPD2     N11862   4.797   2.248  15.803
  805MPD2    H511863   0.011   2.348  15.800
  805MPD2    N111864   4.409   2.388  15.569
  805MPD2    H711865   4.472   2.466  15.552
  806MPD2     C11866   0.058   1.947  19.381
  806MPD2    C111867   0.162   2.033  19.342
  806MPD2    C211868   0.144   2.115  19.232
  806MPD2    C311869   0.055   2.080  19.135
  806MPD2    C411870   4.757   1.990  19.174
  806MPD2    C511871   4.749   1.937  19.302
  806MPD2     H11872   0.213   2.198  19.216
  806MPD2    H111873   4.668   1.976  19.114
  806MPD2    H211874   0.062   1.902  19.479
  806MPD2    H311875   4.665   1.880  19.340
  806MPD2     N11876   0.062   2.122  19.001
  806MPD2    H511877   0.126   2.198  18.982
  806MPD2    N111878   0.274   2.028  19.430
  806MPD2    H711879   0.264   1.975  19.516
  807MPD2     C11880   0.538   1.794  19.153
  807MPD2    C111881   0.447   1.796  19.045
  807MPD2    C211882   0.343   1.698  19.050
  807MPD2    C311883   0.309   1.628  19.164
  807MPD2    C411884   0.399   1.629  19.267
  807MPD2    C511885   0.518   1.708  19.257
  807MPD2     H11886   0.282   1.698  18.960
  807MPD2    H111887   0.381   1.569  19.355
  807MPD2    H211888   0.626   1.857  19.153
  807MPD2    H311889   0.592   1.713  19.336
  807MPD2     N11890   0.186   1.560  19.155
  807MPD2    H511891   0.123   1.588  19.080
  807MPD2    N111892   0.453   1.886  18.939
  807MPD2    H711893   0.425   1.852  18.848
  808MPD2     C11894   0.758   3.572   9.984
  808MPD2    C111895   0.705   3.624  10.097
  808MPD2    C211896   0.705   3.763  10.118
  808MPD2    C311897   0.775   3.840  10.027
  808MPD2    C411898   0.848   3.786   9.924
  808MPD2    C511899   0.842   3.648   9.907
  808MPD2     H11900   0.637   3.801  10.193
  808MPD2    H111901   0.903   3.839   9.848
  808MPD2    H211902   0.754   3.467   9.957
  808MPD2    H311903   0.887   3.600   9.821
  808MPD2     N11904   0.761   3.982  10.026
  808MPD2    H511905   0.821   4.027   9.958
  808MPD2    N111906   0.618   3.555  10.184
  808MPD2    H711907   0.589   3.601  10.270
  809MPD2     C11908   1.119   0.008   9.675
  809MPD2    C111909   1.143   4.679   9.696
  809MPD2    C211910   1.045   4.605   9.749
  809MPD2    C311911   0.934   4.670   9.803
  809MPD2    C411912   0.917   0.005   9.789
  809MPD2    C511913   1.012   0.071   9.729
  809MPD2     H11914   1.053   4.498   9.769
  809MPD2    H111915   0.833   0.054   9.838
  809MPD2    H211916   1.189   0.074   9.625
  809MPD2    H311917   1.003   0.177   9.709
  809MPD2     N11918   0.832   4.602   9.871
  809MPD2    H511919   0.776   4.662   9.931
  809MPD2    N111920   1.262   4.606   9.668
  809MPD2    H711921   1.265   4.507   9.689
  810MPD2     C11922   0.412   3.112  10.745
  810MPD2    C111923   0.296   3.041  10.765
  810MPD2    C211924   0.215   3.090  10.864
  810MPD2    C311925   0.236   3.206  10.931
  810MPD2    C411926   0.351   3.274  10.901
  810MPD2    C511927   0.439   3.229  10.811
  810MPD2     H11928   0.130   3.028  10.890
  810MPD2    H111929   0.361   3.367  10.954
  810MPD2    H211930   0.489   3.080  10.676
  810MPD2    H311931   0.528   3.286  10.785
  810MPD2     N11932   0.141   3.258  11.018
  810MPD2    H511933   0.177   3.344  11.058
  810MPD2    N111934   0.250   2.938  10.680
  810MPD2    H711935   0.297   2.935  10.590
  811MPD2     C11936   4.420   2.946  10.126
  811MPD2    C111937   4.499   3.020  10.215
  811MPD2    C211938   4.485   3.159  10.216
  811MPD2    C311939   4.393   3.216  10.129
  811MPD2    C411940   4.318   3.143  10.037
  811MPD2    C511941   4.340   3.010  10.032
  811MPD2     H11942   4.541   3.216  10.289
  811MPD2    H111943   4.248   3.186   9.966
  811MPD2    H211944   4.427   2.839  10.136
  811MPD2    H311945   4.266   2.951   9.978
  811MPD2     N11946   4.383   3.358  10.138
  811MPD2    H511947   4.438   3.408  10.208
  811MPD2    N111948   4.561   2.948  10.315
  811MPD2    H711949   4.548   2.848  10.306
  812MPD2     C11950   3.266   2.906  12.315
  812MPD2    C111951   3.315   2.997  12.407
  812MPD2    C211952   3.384   2.957  12.518
  812MPD2    C311953   3.416   2.822  12.539
  812MPD2    C411954   3.373   2.731  12.439
  812MPD2    C511955   3.292   2.773  12.336
  812MPD2     H11956   3.431   3.031  12.581
  812MPD2    H111957   3.385   2.623  12.433
  812MPD2    H211958   3.204   2.921  12.228
  812MPD2    H311959   3.258   2.705  12.257
  812MPD2     N11960   3.478   2.779  12.654
  812MPD2    H511961   3.516   2.846  12.720
  812MPD2    N111962   3.295   3.134  12.383
  812MPD2    H711963   3.275   3.162  12.287
  813MPD2     C11964   2.717   0.127  13.062
  813MPD2    C111965   2.809   0.116  13.160
  813MPD2    C211966   2.770   0.077  13.286
  813MPD2    C311967   2.641   0.040  13.311
  813MPD2    C411968   2.549   0.052  13.212
  813MPD2    C511969   2.583   0.101  13.087
  813MPD2     H11970   2.844   0.062  13.363
  813MPD2    H111971   2.443   0.048  13.236
  813MPD2    H211972   2.745   0.160  12.962
  813MPD2    H311973   2.504   0.115  13.014
  813MPD2     N11974   2.608   0.015  13.445
  813MPD2    H511975   2.687   0.012  13.509
  813MPD2    N111976   2.944   0.126  13.127
  813MPD2    H711977   2.962   0.186  13.047
  814MPD2     C11978   3.392   1.138  12.862
  814MPD2    C111979   3.349   1.211  12.753
  814MPD2    C211980   3.364   1.351  12.760
  814MPD2    C311981   3.416   1.407  12.881
  814MPD2    C411982   3.459   1.324  12.982
  814MPD2    C511983   3.452   1.188  12.969
  814MPD2     H11984   3.333   1.407  12.672
  814MPD2    H111985   3.497   1.369  13.073
  814MPD2    H211986   3.374   1.032  12.863
  814MPD2    H311987   3.481   1.123  13.051
  814MPD2     N11988   3.437   1.545  12.897
  814MPD2    H511989   3.474   1.588  12.981
  814MPD2    N111990   3.283   1.154  12.642
  814MPD2    H711991   3.242   1.214  12.572
  815MPD2     C11992   3.761   0.013  11.954
  815MPD2    C111993   3.707   4.696  11.946
  815MPD2    C211994   3.575   4.674  11.976
  815MPD2    C311995   3.488   4.770  12.017
  815MPD2    C411996   3.542   0.091  12.026
  815MPD2    C511997   3.682   0.112  12.006
  815MPD2     H11998   3.529   4.580  11.946
  815MPD2    H111999   3.485   0.177  12.058
  815MPD2    H212000   3.866   0.026  11.929
  815MPD2    H312001   3.712   0.216  12.012
  815MPD2     N12002   3.350   4.733  12.035
  815MPD2    H512003   3.321   4.636  12.024
  815MPD2    N112004   3.790   4.600  11.887
  815MPD2    H712005   3.877   4.636  11.849
  816MPD2     C12006   3.549   3.265  17.334
  816MPD2    C112007   3.581   3.386  17.285
  816MPD2    C212008   3.703   3.399  17.226
  816MPD2    C312009   3.792   3.295  17.216
  816MPD2    C412010   3.752   3.175  17.260
  816MPD2    C512011   3.623   3.153  17.310
  816MPD2     H12012   3.734   3.498  17.196
  816MPD2    H112013   3.809   3.087  17.232
  816MPD2    H212014   3.453   3.253  17.381
  816MPD2    H312015   3.599   3.051  17.334
  816MPD2     N12016   3.911   3.320  17.155
  816MPD2    H512017   3.920   3.410  17.109
  816MPD2    N112018   3.493   3.497  17.305
  816MPD2    H712019   3.409   3.479  17.359
  817MPD2     C12020   3.381   0.737   9.992
  817MPD2    C112021   3.281   0.677   9.911
  817MPD2    C212022   3.199   0.754   9.831
  817MPD2    C312023   3.207   0.891   9.842
  817MPD2    C412024   3.297   0.948   9.931
  817MPD2    C512025   3.390   0.873   9.991
  817MPD2     H12026   3.131   0.716   9.755
  817MPD2    H112027   3.311   1.055   9.926
  817MPD2    H212028   3.452   0.681  10.051
  817MPD2    H312029   3.467   0.932  10.037
  817MPD2     N12030   3.128   0.962   9.749
  817MPD2    H512031   3.086   0.896   9.685
  817MPD2    N112032   3.273   0.533   9.892
  817MPD2    H712033   3.192   0.498   9.842
  818MPD2     C12034   2.149   0.701  10.202
  818MPD2    C112035   2.071   0.694  10.318
  818MPD2    C212036   1.989   0.588  10.337
  818MPD2    C312037   1.979   0.487  10.241
  818MPD2    C412038   2.053   0.491  10.123
  818MPD2    C512039   2.136   0.599  10.111
  818MPD2     H12040   1.926   0.585  10.425
  818MPD2    H112041   2.035   0.421  10.041
  818MPD2    H212042   2.205   0.790  10.176
  818MPD2    H312043   2.185   0.612  10.016
  818MPD2     N12044   1.892   0.381  10.255
  818MPD2    H512045   1.890   0.317  10.177
  818MPD2    N112046   2.061   0.798  10.414
  818MPD2    H712047   1.983   0.776  10.475
  819MPD2     C12048   0.461   2.046  15.809
  819MPD2    C112049   0.451   1.908  15.822
  819MPD2    C212050   0.535   1.842  15.915
  819MPD2    C312051   0.638   1.915  15.977
  819MPD2    C412052   0.651   2.052  15.961
  819MPD2    C512053   0.559   2.118  15.881
  819MPD2     H12054   0.531   1.736  15.938
  819MPD2    H112055   0.725   2.111  16.013
  819MPD2    H212056   0.396   2.103  15.744
  819MPD2    H312057   0.566   2.226  15.888
  819MPD2     N12058   0.714   1.839  16.068
  819MPD2    H512059   0.678   1.745  16.081
  819MPD2    N112060   0.346   1.842  15.753
  819MPD2    H712061   0.302   1.902  15.685
  820MPD2     C12062   4.352   1.933  15.141
  820MPD2    C112063   4.447   2.012  15.203
  820MPD2    C212064   4.536   1.956  15.287
  820MPD2    C312065   4.536   1.816  15.311
  820MPD2    C412066   4.426   1.739  15.264
  820MPD2    C512067   4.336   1.800  15.177
  820MPD2     H12068   4.617   2.017  15.324
  820MPD2    H112069   4.399   1.641  15.301
  820MPD2    H212070   4.291   1.979  15.064
  820MPD2    H312071   4.251   1.744  15.139
  820MPD2     N12072   4.622   1.756  15.405
  820MPD2    H512073   4.598   1.658  15.418
  820MPD2    N112074   4.446   2.150  15.173
  820MPD2    H712075   4.372   2.182  15.111
  821MPD2     C12076   0.754   3.277  13.406
  821MPD2    C112077   0.818   3.246  13.522
  821MPD2    C212078   0.936   3.308  13.555
  821MPD2    C312079   0.976   3.420  13.480
  821MPD2    C412080   0.911   3.450  13.364
  821MPD2    C512081   0.806   3.372  13.324
  821MPD2     H12082   0.990   3.283  13.645
  821MPD2    H112083   0.943   3.538  13.309
  821MPD2    H212084   0.659   3.231  13.379
  821MPD2    H312085   0.759   3.397  13.230
  821MPD2     N12086   1.089   3.493  13.514
  821MPD2    H512087   1.098   3.575  13.454
  821MPD2    N112088   0.770   3.135  13.609
  821MPD2    H712089   0.824   3.116  13.693
  822MPD2     C12090   1.272   3.352  15.957
  822MPD2    C112091   1.227   3.313  16.081
  822MPD2    C212092   1.125   3.391  16.137
  822MPD2    C312093   1.083   3.509  16.074
  822MPD2    C412094   1.142   3.549  15.958
  822MPD2    C512095   1.229   3.466  15.896
  822MPD2     H12096   1.075   3.364  16.229
  822MPD2    H112097   1.113   3.637  15.900
  822MPD2    H212098   1.342   3.296  15.896
  822MPD2    H312099   1.269   3.491  15.798
  822MPD2     N12100   0.991   3.585  16.148
  822MPD2    H512101   0.976   3.559  16.245
  822MPD2    N112102   1.268   3.200  16.156
  822MPD2    H712103   1.231   3.199  16.251
  823MPD2     C12104   0.656   3.716  16.910
  823MPD2    C112105   0.704   3.644  16.802
  823MPD2    C212106   0.735   3.513  16.829
  823MPD2    C312107   0.732   3.454  16.952
  823MPD2    C412108   0.669   3.520  17.054
  823MPD2    C512109   0.640   3.650  17.033
  823MPD2     H12110   0.790   3.461  16.751
  823MPD2    H112111   0.661   3.488  17.157
  823MPD2    H212112   0.636   3.822  16.902
  823MPD2    H312113   0.597   3.706  17.116
  823MPD2     N12114   0.794   3.336  16.981
  823MPD2    H512115   0.778   3.292  17.071
  823MPD2    N112116   0.698   3.707  16.672
  823MPD2    H712117   0.675   3.806  16.666
  824MPD2     C12118   1.860   2.598  16.413
  824MPD2    C112119   1.809   2.656  16.297
  824MPD2    C212120   1.868   2.620  16.174
  824MPD2    C312121   1.967   2.525  16.172
  824MPD2    C412122   2.016   2.471  16.292
  824MPD2    C512123   1.956   2.509  16.411
  824MPD2     H12124   1.831   2.671  16.085
  824MPD2    H112125   2.094   2.399  16.312
  824MPD2    H212126   1.816   2.604  16.512
  824MPD2    H312127   1.999   2.472  16.503
  824MPD2     N12128   2.016   2.481  16.047
  824MPD2    H512129   1.973   2.510  15.959
  824MPD2    N112130   1.704   2.749  16.296
  824MPD2    H712131   1.698   2.792  16.204
  825MPD2     C12132   2.429   2.773  15.711
  825MPD2    C112133   2.341   2.716  15.626
  825MPD2    C212134   2.295   2.787  15.516
  825MPD2    C312135   2.325   2.926  15.501
  825MPD2    C412136   2.419   2.976  15.591
  825MPD2    C512137   2.473   2.902  15.688
  825MPD2     H12138   2.222   2.742  15.450
  825MPD2    H112139   2.444   3.082  15.591
  825MPD2    H212140   2.456   2.710  15.795
  825MPD2    H312141   2.537   2.952  15.760
  825MPD2     N12142   2.261   3.015  15.404
  825MPD2    H512143   2.293   3.111  15.414
  825MPD2    N112144   2.294   2.587  15.668
  825MPD2    H712145   2.338   2.539  15.745
  826MPD2     C12146   1.996   2.263  14.168
  826MPD2    C112147   1.985   2.350  14.058
  826MPD2    C212148   1.901   2.461  14.067
  826MPD2    C312149   1.842   2.498  14.188
  826MPD2    C412150   1.867   2.416  14.297
  826MPD2    C512151   1.942   2.302  14.288
  826MPD2     H12152   1.879   2.521  13.979
  826MPD2    H112153   1.818   2.443  14.390
  826MPD2    H212154   2.054   2.173  14.153
  826MPD2    H312155   1.952   2.236  14.373
  826MPD2     N12156   1.744   2.599  14.201
  826MPD2    H512157   1.701   2.618  14.291
  826MPD2    N112158   2.061   2.307  13.945
  826MPD2    H712159   2.112   2.220  13.957
  827MPD2     C12160   2.448   4.491  10.205
  827MPD2    C112161   2.413   4.377  10.274
  827MPD2    C212162   2.319   4.291  10.219
  827MPD2    C312163   2.248   4.322  10.102
  827MPD2    C412164   2.269   4.445  10.051
  827MPD2    C512165   2.365   4.523  10.103
  827MPD2     H12166   2.299   4.195  10.266
  827MPD2    H112167   2.210   4.481   9.967
  827MPD2    H212168   2.540   4.548  10.217
  827MPD2    H312169   2.378   4.619  10.054
  827MPD2     N12170   2.156   4.227  10.042
  827MPD2    H512171   2.154   4.134  10.083
  827MPD2    N112172   2.491   4.349  10.393
  827MPD2    H712173   2.564   4.413  10.422
  828MPD2     C12174   1.444   3.867  12.440
  828MPD2    C112175   1.330   3.877  12.373
  828MPD2    C212176   1.335   3.929  12.247
  828MPD2    C312177   1.453   3.969  12.183
  828MPD2    C412178   1.568   3.949  12.250
  828MPD2    C512179   1.567   3.893  12.378
  828MPD2     H12180   1.240   3.937  12.195
  828MPD2    H112181   1.664   3.964  12.202
  828MPD2    H212182   1.457   3.832  12.542
  828MPD2    H312183   1.664   3.871  12.421
  828MPD2     N12184   1.463   4.019  12.053
  828MPD2    H512185   1.557   4.045  12.025
  828MPD2    N112186   1.202   3.843  12.426
  828MPD2    H712187   1.125   3.859  12.362
  829MPD2     C12188   0.598   3.771  11.889
  829MPD2    C112189   0.531   3.771  12.009
  829MPD2    C212190   0.605   3.736  12.119
  829MPD2    C312191   0.729   3.678  12.109
  829MPD2    C412192   0.788   3.663  11.981
  829MPD2    C512193   0.721   3.722  11.876
  829MPD2     H12194   0.560   3.751  12.216
  829MPD2    H112195   0.887   3.626  11.961
  829MPD2    H212196   0.548   3.815  11.803
  829MPD2    H312197   0.759   3.707  11.775
  829MPD2     N12198   0.818   3.632  12.212
  829MPD2    H512199   0.909   3.593  12.190
  829MPD2    N112200   0.404   3.841  12.021
  829MPD2    H712201   0.396   3.921  11.959
  830MPD2     C12202   1.390   1.691  16.187
  830MPD2    C112203   1.284   1.662  16.101
  830MPD2    C212204   1.280   1.715  15.972
  830MPD2    C312205   1.388   1.792  15.924
  830MPD2    C412206   1.491   1.821  16.006
  830MPD2    C512207   1.488   1.770  16.137
  830MPD2     H12208   1.193   1.691  15.912
  830MPD2    H112209   1.571   1.886  15.973
  830MPD2    H212210   1.395   1.658  16.291
  830MPD2    H312211   1.566   1.798  16.206
  830MPD2     N12212   1.383   1.876  15.811
  830MPD2    H512213   1.468   1.931  15.805
  830MPD2    N112214   1.185   1.577  16.154
  830MPD2    H712215   1.193   1.553  16.252
  831MPD2     C12216   1.250   3.738  16.458
  831MPD2    C112217   1.291   3.616  16.402
  831MPD2    C212218   1.217   3.505  16.424
  831MPD2    C312219   1.096   3.512  16.495
  831MPD2    C412220   1.061   3.630  16.558
  831MPD2    C512221   1.144   3.739  16.549
  831MPD2     H12222   1.242   3.415  16.369
  831MPD2    H112223   0.975   3.620  16.624
  831MPD2    H212224   1.307   3.827  16.435
  831MPD2    H312225   1.118   3.833  16.597
  831MPD2     N12226   0.997   3.409  16.491
  831MPD2    H512227   0.909   3.432  16.537
  831MPD2    N112228   1.396   3.621  16.312
  831MPD2    H712229   1.410   3.709  16.264
  832MPD2     C12230   4.459   4.583  17.354
  832MPD2    C112231   4.409   4.712  17.350
  832MPD2    C212232   4.306   4.736  17.262
  832MPD2    C312233   4.258   4.639  17.180
  832MPD2    C412234   4.310   4.512  17.182
  832MPD2    C512235   4.415   4.488  17.269
  832MPD2     H12236   4.268   0.032  17.249
  832MPD2    H112237   4.274   4.429  17.122
  832MPD2    H212238   4.544   4.564  17.418
  832MPD2    H312239   4.467   4.393  17.278
  832MPD2     N12240   4.165   4.658  17.079
  832MPD2    H512241   4.127   4.588  17.017
  832MPD2    N112242   4.468   4.800  17.441
  832MPD2    H712243   4.538   4.753  17.497
  833MPD2     C12244   1.573   1.607  13.097
  833MPD2    C112245   1.641   1.709  13.038
  833MPD2    C212246   1.763   1.681  12.983
  833MPD2    C312247   1.814   1.552  12.974
  833MPD2    C412248   1.747   1.451  13.036
  833MPD2    C512249   1.632   1.482  13.100
  833MPD2     H12250   1.811   1.761  12.928
  833MPD2    H112251   1.788   1.351  13.029
  833MPD2    H212252   1.475   1.618  13.143
  833MPD2    H312253   1.589   1.400  13.156
  833MPD2     N12254   1.926   1.533  12.890
  833MPD2    H512255   1.947   1.435  12.875
  833MPD2    N112256   1.576   1.828  13.020
  833MPD2    H712257   1.478   1.836  13.045
  834MPD2     C12258   1.642   1.223  12.000
  834MPD2    C112259   1.731   1.319  11.962
  834MPD2    C212260   1.821   1.364  12.058
  834MPD2    C312261   1.805   1.334  12.195
  834MPD2    C412262   1.697   1.263  12.234
  834MPD2    C512263   1.625   1.205  12.137
  834MPD2     H12264   1.906   1.418  12.017
  834MPD2    H112265   1.659   1.247  12.334
  834MPD2    H212266   1.580   1.168  11.931
  834MPD2    H312267   1.557   1.125  12.163
  834MPD2     N12268   1.898   1.405  12.285
  834MPD2    H512269   1.962   1.474  12.249
  834MPD2    N112270   1.732   1.365  11.821
  834MPD2    H712271   1.656   1.328  11.764
  835MPD2     C12272   1.860   4.110  11.339
  835MPD2    C112273   1.833   4.221  11.415
  835MPD2    C212274   1.923   4.244  11.524
  835MPD2    C312275   2.022   4.157  11.562
  835MPD2    C412276   2.050   4.047  11.483
  835MPD2    C512277   1.966   4.030  11.370
  835MPD2     H12278   1.906   4.341  11.569
  835MPD2    H112279   2.138   3.987  11.503
  835MPD2    H212280   1.804   4.086  11.250
  835MPD2    H312281   1.993   3.959  11.293
  835MPD2     N12282   2.102   4.176  11.672
  835MPD2    H512283   2.156   4.100  11.712
  835MPD2    N112284   1.730   4.315  11.409
  835MPD2    H712285   1.721   4.375  11.491
  836MPD2     C12286   1.527   4.342  12.060
  836MPD2    C112287   1.620   4.296  12.143
  836MPD2    C212288   1.581   4.260  12.271
  836MPD2    C312289   1.455   4.302  12.317
  836MPD2    C412290   1.367   4.364  12.238
  836MPD2    C512291   1.398   4.371  12.100
  836MPD2     H12292   1.655   4.219  12.339
  836MPD2    H112293   1.265   4.390  12.263
  836MPD2    H212294   1.557   4.377  11.962
  836MPD2    H312295   1.333   4.425  12.033
  836MPD2     N12296   1.403   4.275  12.450
  836MPD2    H512297   1.303   4.294  12.458
  836MPD2    N112298   1.745   4.264  12.089
  836MPD2    H712299   1.764   4.283  11.991
  837MPD2     C12300   4.751   4.044   9.977
  837MPD2    C112301   4.625   4.077  10.023
  837MPD2    C212302   4.583   4.205   9.989
  837MPD2    C312303   4.661   4.293   9.915
  837MPD2    C412304   4.787   4.262   9.878
  837MPD2    C512305   0.025   4.135   9.902
  837MPD2     H12306   4.479   4.222  10.011
  837MPD2    H112307   0.046   4.337   9.833
  837MPD2    H212308   4.789   3.945   9.999
  837MPD2    H312309   0.125   4.109   9.871
  837MPD2     N12310   4.598   4.413   9.879
  837MPD2    H512311   4.519   4.433   9.939
  837MPD2    N112312   4.536   3.991  10.090
  837MPD2    H712313   4.445   4.032  10.108
  838MPD2     C12314   3.349   2.278  11.963
  838MPD2    C112315   3.377   2.253  12.098
  838MPD2    C212316   3.275   2.193  12.172
  838MPD2    C312317   3.150   2.162  12.116
  838MPD2    C412318   3.135   2.174  11.982
  838MPD2    C512319   3.227   2.239  11.911
  838MPD2     H12320   3.286   2.180  12.279
  838MPD2    H112321   3.054   2.132  11.923
  838MPD2    H212322   3.414   2.335  11.898
  838MPD2    H312323   3.212   2.247  11.804
  838MPD2     N12324   3.051   2.109  12.198
  838MPD2    H512325   3.064   2.121  12.298
  838MPD2    N112326   3.508   2.269  12.154
  838MPD2    H712327   3.521   2.282  12.254
  839MPD2     C12328   3.135   1.567  12.097
  839MPD2    C112329   3.177   1.559  11.970
  839MPD2    C212330   3.256   1.662  11.914
  839MPD2    C312331   3.289   1.771  11.997
  839MPD2    C412332   3.245   1.771  12.130
  839MPD2    C512333   3.170   1.672  12.177
  839MPD2     H12334   3.300   1.657  11.815
  839MPD2    H112335   3.281   1.852  12.193
  839MPD2    H212336   3.089   1.479  12.140
  839MPD2    H312337   3.150   1.674  12.284
  839MPD2     N12338   3.370   1.878  11.950
  839MPD2    H512339   3.381   1.955  12.015
  839MPD2    N112340   3.140   1.458  11.879
  839MPD2    H712341   3.185   1.453  11.788
  840MPD2     C12342   3.064   4.445  10.435
  840MPD2    C112343   3.051   4.385  10.554
  840MPD2    C212344   3.143   4.413  10.648
  840MPD2    C312345   3.244   4.491  10.623
  840MPD2    C412346   3.244   4.560  10.508
  840MPD2    C512347   3.168   4.526  10.402
  840MPD2     H12348   3.138   4.367  10.745
  840MPD2    H112349   3.325   4.630  10.488
  840MPD2    H212350   2.983   4.443  10.362
  840MPD2    H312351   3.174   4.577  10.306
  840MPD2     N12352   3.338   4.532  10.722
  840MPD2    H512353   3.390   4.618  10.709
  840MPD2    N112354   2.929   4.320  10.572
  840MPD2    H712355   2.866   4.329  10.493
  841MPD2     C12356   2.613   3.678  15.311
  841MPD2    C112357   2.567   3.709  15.184
  841MPD2    C212358   2.560   3.834  15.134
  841MPD2    C312359   2.619   3.937  15.213
  841MPD2    C412360   2.651   3.911  15.341
  841MPD2    C512361   2.658   3.785  15.384
  841MPD2     H12362   2.535   3.851  15.030
  841MPD2    H112363   2.688   3.987  15.410
  841MPD2    H212364   2.611   3.585  15.366
  841MPD2    H312365   2.698   3.771  15.484
  841MPD2     N12366   2.639   4.066  15.146
  841MPD2    H512367   2.633   4.066  15.045
  841MPD2    N112368   2.504   3.607  15.106
  841MPD2    H712369   2.475   3.643  15.016
  842MPD2     C12370   3.591   0.187  17.034
  842MPD2    C112371   3.497   0.096  16.994
  842MPD2    C212372   3.446   0.005  17.089
  842MPD2    C312373   3.488   0.011  17.220
  842MPD2    C412374   3.589   0.100  17.256
  842MPD2    C512375   3.645   0.181  17.163
  842MPD2     H12376   3.362   4.748  17.059
  842MPD2    H112377   3.617   0.120  17.358
  842MPD2    H212378   3.633   0.258  16.964
  842MPD2    H312379   3.715   0.260  17.189
  842MPD2     N12380   3.420   4.754  17.328
  842MPD2    H512381   3.434   4.792  17.421
  842MPD2    N112382   3.438   0.119  16.873
  842MPD2    H712383   3.462   0.205  16.823
  843MPD2     C12384   0.357   0.881  17.976
  843MPD2    C112385   0.390   0.820  18.087
  843MPD2    C212386   0.488   0.879  18.168
  843MPD2    C312387   0.534   1.009  18.141
  843MPD2    C412388   0.481   1.077  18.035
  843MPD2    C512389   0.404   1.011  17.944
  843MPD2     H12390   0.532   0.818  18.247
  843MPD2    H112391   0.514   1.174  18.000
  843MPD2    H212392   0.283   0.840  17.908
  843MPD2    H312393   0.365   1.068  17.862
  843MPD2     N12394   0.638   1.075  18.219
  843MPD2    H512395   0.667   1.160  18.172
  843MPD2    N112396   0.318   0.704  18.122
  843MPD2    H712397   0.253   0.665  18.055
  844MPD2     C12398   3.971   4.501  16.553
  844MPD2    C112399   4.094   4.450  16.540
  844MPD2    C212400   4.206   4.518  16.585
  844MPD2    C312401   4.195   4.646  16.637
  844MPD2    C412402   4.066   4.700  16.647
  844MPD2    C512403   3.952   4.622  16.614
  844MPD2     H12404   4.299   4.462  16.583
  844MPD2    H112405   4.046   4.797  16.690
  844MPD2    H212406   3.885   4.449  16.514
  844MPD2    H312407   3.851   4.661  16.616
  844MPD2     N12408   4.314   4.717  16.674
  844MPD2    H512409   4.402   4.667  16.672
  844MPD2    N112410   4.114   4.321  16.484
  844MPD2    H712411   4.209   4.286  16.487
  845MPD2     C12412   4.600   0.798  17.220
  845MPD2    C112413   4.504   0.714  17.276
  845MPD2    C212414   4.496   0.582  17.233
  845MPD2    C312415   4.567   0.546  17.115
  845MPD2    C412416   4.660   0.628  17.062
  845MPD2    C512417   4.674   0.752  17.119
  845MPD2     H12418   4.425   0.516  17.282
  845MPD2    H112419   4.732   0.604  16.985
  845MPD2    H212420   4.610   0.900  17.256
  845MPD2    H312421   4.756   0.807  17.075
  845MPD2     N12422   4.539   0.421  17.055
  845MPD2    H512423   4.477   0.350  17.093
  845MPD2    N112424   4.437   0.768  17.391
  845MPD2    H712425   4.434   0.869  17.389
  846MPD2     C12426   1.007   0.960  13.864
  846MPD2    C112427   0.911   1.061  13.891
  846MPD2    C212428   0.881   1.084  14.023
  846MPD2    C312429   0.934   1.005  14.126
  846MPD2    C412430   1.012   0.899  14.094
  846MPD2    C512431   1.043   0.875  13.962
  846MPD2     H12432   0.805   1.160  14.037
  846MPD2    H112433   1.052   0.819  14.156
  846MPD2    H212434   1.045   0.942  13.764
  846MPD2    H312435   1.095   0.785  13.933
  846MPD2     N12436   0.893   1.037  14.258
  846MPD2    H512437   0.809   1.091  14.277
  846MPD2    N112438   0.857   1.146  13.790
  846MPD2    H712439   0.817   1.235  13.818
  847MPD2     C12440   1.018   2.042  14.513
  847MPD2    C112441   1.001   2.021  14.643
  847MPD2    C212442   1.086   1.941  14.702
  847MPD2    C312443   1.190   1.873  14.637
  847MPD2    C412444   1.206   1.894  14.510
  847MPD2    C512445   1.113   1.977  14.450
  847MPD2     H12446   1.085   1.936  14.810
  847MPD2    H112447   1.291   1.857  14.454
  847MPD2    H212448   0.956   2.107  14.451
  847MPD2    H312449   1.128   1.998  14.344
  847MPD2     N12450   1.289   1.803  14.705
  847MPD2    H512451   1.367   1.779  14.644
  847MPD2    N112452   0.913   2.095  14.726
  847MPD2    H712453   0.928   2.081  14.825
  848MPD2     C12454   3.731   0.202  16.478
  848MPD2    C112455   3.791   0.251  16.595
  848MPD2    C212456   3.840   0.380  16.591
  848MPD2    C312457   3.836   0.455  16.474
  848MPD2    C412458   3.780   0.400  16.363
  848MPD2    C512459   3.714   0.281  16.365
  848MPD2     H12460   3.886   0.422  16.680
  848MPD2    H112461   3.777   0.458  16.272
  848MPD2    H212462   3.688   0.103  16.469
  848MPD2    H312463   3.657   0.249  16.279
  848MPD2     N12464   3.879   0.593  16.456
  848MPD2    H512465   3.874   0.635  16.363
  848MPD2    N112466   3.812   0.181  16.710
  848MPD2    H712467   3.865   0.225  16.785
  849MPD2     C12468   2.490   0.021  14.582
  849MPD2    C112469   2.604   0.085  14.618
  849MPD2    C212470   2.693   0.025  14.705
  849MPD2    C312471   2.677   4.697  14.755
  849MPD2    C412472   2.557   4.637  14.717
  849MPD2    C512473   2.468   4.701  14.638
  849MPD2     H12474   2.792   0.070  14.710
  849MPD2    H112475   2.532   4.535  14.746
  849MPD2    H212476   2.421   0.065  14.511
  849MPD2    H312477   2.373   4.652  14.618
  849MPD2     N12478   2.787   4.622  14.799
  849MPD2    H512479   2.766   4.523  14.805
  849MPD2    N112480   2.638   0.203  14.541
  849MPD2    H712481   2.581   0.221  14.459
  850MPD2     C12482   1.011   2.752  14.814
  850MPD2    C112483   1.048   2.869  14.878
  850MPD2    C212484   1.181   2.892  14.902
  850MPD2    C312485   1.274   2.784  14.901
  850MPD2    C412486   1.235   2.667  14.847
  850MPD2    C512487   1.112   2.657  14.791
  850MPD2     H12488   1.205   2.989  14.944
  850MPD2    H112489   1.312   2.591  14.834
  850MPD2    H212490   0.907   2.738  14.786
  850MPD2    H312491   1.087   2.570  14.731
  850MPD2     N12492   1.404   2.791  14.960
  850MPD2    H512493   1.470   2.717  14.938
  850MPD2    N112494   0.945   2.958  14.902
  850MPD2    H712495   0.860   2.938  14.849
  851MPD2     C12496   1.517   2.820  15.541
  851MPD2    C112497   1.405   2.775  15.475
  851MPD2    C212498   1.375   2.638  15.469
  851MPD2    C312499   1.463   2.548  15.521
  851MPD2    C412500   1.584   2.594  15.563
  851MPD2    C512501   1.600   2.725  15.600
  851MPD2     H12502   1.286   2.588  15.432
  851MPD2    H112503   1.663   2.533  15.604
  851MPD2    H212504   1.531   2.925  15.560
  851MPD2    H312505   1.688   2.755  15.656
  851MPD2     N12506   1.419   2.411  15.524
  851MPD2    H512507   1.329   2.386  15.484
  851MPD2    N112508   1.316   2.867  15.425
  851MPD2    H712509   1.340   2.964  15.439
  852MPD2     C12510   1.021   0.437  10.517
  852MPD2    C112511   0.966   0.527  10.609
  852MPD2    C212512   0.970   0.662  10.589
  852MPD2    C312513   1.019   0.707  10.469
  852MPD2    C412514   1.064   0.620  10.372
  852MPD2    C512515   1.076   0.481  10.395
  852MPD2     H12516   0.917   0.732  10.653
  852MPD2    H112517   1.108   0.656  10.280
  852MPD2    H212518   1.012   0.329  10.528
  852MPD2    H312519   1.098   0.419  10.309
  852MPD2     N12520   1.014   0.848  10.451
  852MPD2    H512521   0.985   0.896  10.536
  852MPD2    N112522   0.918   0.494  10.737
  852MPD2    H712523   0.894   0.575  10.794
  853MPD2     C12524   2.481   0.180  12.658
  853MPD2    C112525   2.544   0.300  12.673
  853MPD2    C212526   2.623   0.347  12.566
  853MPD2    C312527   2.632   0.271  12.447
  853MPD2    C412528   2.570   0.150  12.441
  853MPD2    C512529   2.493   0.110  12.545
  853MPD2     H12530   2.663   0.447  12.580
  853MPD2    H112531   2.557   0.103  12.344
  853MPD2    H212532   2.412   0.137  12.729
  853MPD2    H312533   2.447   0.012  12.540
  853MPD2     N12534   2.695   0.316  12.333
  853MPD2    H512535   2.714   0.256  12.254
  853MPD2    N112536   2.519   0.370  12.794
  853MPD2    H712537   2.451   0.332  12.859
  854MPD2     C12538   4.167   0.399  12.936
  854MPD2    C112539   4.258   0.494  12.910
  854MPD2    C212540   4.387   0.491  12.963
  854MPD2    C312541   4.413   0.380  13.050
  854MPD2    C412542   4.321   0.279  13.065
  854MPD2    C512543   4.197   0.283  13.008
  854MPD2     H12544   4.470   0.558  12.947
  854MPD2    H112545   4.328   0.194  13.132
  854MPD2    H212546   4.069   0.407  12.891
  854MPD2    H312547   4.122   0.208  13.030
  854MPD2     N12548   4.536   0.373  13.122
  854MPD2    H512549   4.555   0.286  13.172
  854MPD2    N112550   4.216   0.603  12.827
  854MPD2    H712551   4.118   0.609  12.800
  855MPD2     C12552   4.288   0.361  13.637
  855MPD2    C112553   4.402   0.292  13.670
  855MPD2    C212554   4.525   0.349  13.632
  855MPD2    C312555   4.537   0.475  13.563
  855MPD2    C412556   4.416   0.532  13.535
  855MPD2    C512557   4.297   0.477  13.573
  855MPD2     H12558   4.619   0.297  13.651
  855MPD2    H112559   4.411   0.625  13.480
  855MPD2    H212560   4.195   0.325  13.680
  855MPD2    H312561   4.207   0.524  13.535
  855MPD2     N12562   4.649   0.542  13.522
  855MPD2    H512563   4.633   0.623  13.463
  855MPD2    N112564   4.417   0.174  13.744
  855MPD2    H712565   4.509   0.152  13.781
  856MPD2     C12566   2.095   0.952  14.440
  856MPD2    C112567   2.167   1.046  14.368
  856MPD2    C212568   2.092   1.148  14.303
  856MPD2    C312569   1.947   1.154  14.319
  856MPD2    C412570   1.879   1.061  14.401
  856MPD2    C512571   1.953   0.954  14.452
  856MPD2     H12572   2.144   1.224  14.245
  856MPD2    H112573   1.772   1.054  14.411
  856MPD2    H212574   2.154   0.878  14.492
  856MPD2    H312575   1.911   0.877  14.516
  856MPD2     N12576   1.876   1.259  14.267
  856MPD2    H512577   1.779   1.276  14.290
  856MPD2    N112578   2.308   1.055  14.358
  856MPD2    H712579   2.328   1.134  14.299
  857MPD2     C12580   3.279   3.645  13.281
  857MPD2    C112581   3.405   3.652  13.213
  857MPD2    C212582   3.461   3.773  13.176
  857MPD2    C312583   3.404   3.892  13.209
  857MPD2    C412584   3.287   3.893  13.287
  857MPD2    C512585   3.232   3.773  13.324
  857MPD2     H12586   3.543   3.785  13.106
  857MPD2    H112587   3.242   3.986  13.320
  857MPD2    H212588   3.242   3.552  13.323
  857MPD2    H312589   3.143   3.781  13.386
  857MPD2     N12590   3.472   4.009  13.174
  857MPD2    H512591   3.552   4.004  13.112
  857MPD2    N112592   3.476   3.534  13.182
  857MPD2    H712593   3.419   3.452  13.200
  858MPD2     C12594   4.238   2.409  17.007
  858MPD2    C112595   4.376   2.397  17.000
  858MPD2    C212596   4.455   2.478  17.084
  858MPD2    C312597   4.389   2.563  17.168
  858MPD2    C412598   4.254   2.578  17.166
  858MPD2    C512599   4.179   2.504  17.085
  858MPD2     H12600   4.563   2.467  17.082
  858MPD2    H112601   4.202   2.643  17.235
  858MPD2    H212602   4.161   2.357  16.950
  858MPD2    H312603   4.071   2.514  17.082
  858MPD2     N12604   4.458   2.640  17.258
  858MPD2    H512605   4.398   2.710  17.301
  858MPD2    N112606   4.420   2.297  16.905
  858MPD2    H712607   4.339   2.258  16.858
  859MPD2     C12608   3.240   4.321  15.834
  859MPD2    C112609   3.170   4.346  15.718
  859MPD2    C212610   3.137   4.245  15.631
  859MPD2    C312611   3.164   4.115  15.666
  859MPD2    C412612   3.233   4.094  15.786
  859MPD2    C512613   3.280   4.195  15.864
  859MPD2     H12614   3.096   4.274  15.536
  859MPD2    H112615   3.267   3.994  15.810
  859MPD2    H212616   3.273   4.403  15.897
  859MPD2    H312617   3.347   4.186  15.948
  859MPD2     N12618   3.143   4.001  15.594
  859MPD2    H512619   3.171   3.911  15.632
  859MPD2    N112620   3.115   4.481  15.703
  859MPD2    H712621   3.152   4.548  15.769
  860MPD2     C12622   0.915   0.045  11.916
  860MPD2    C112623   0.931   0.100  12.039
  860MPD2    C212624   0.824   0.089  12.135
  860MPD2    C312625   0.716   0.011  12.109
  860MPD2    C412626   0.709   4.750  11.986
  860MPD2    C512627   0.803   4.776  11.893
  860MPD2     H12628   0.835   0.123  12.238
  860MPD2    H112629   0.630   4.682  11.955
  860MPD2    H212630   0.978   0.058  11.829
  860MPD2    H312631   0.792   4.736  11.793
  860MPD2     N12632   0.608   0.001  12.199
  860MPD2    H512633   0.641   0.034  12.289
  860MPD2    N112634   1.045   0.173  12.075
  860MPD2    H712635   1.054   0.206  12.171
  861MPD2     C12636   4.189   3.216  11.371
  861MPD2    C112637   4.121   3.317  11.441
  861MPD2    C212638   4.015   3.377  11.375
  861MPD2    C312639   3.977   3.346  11.246
  861MPD2    C412640   4.054   3.255  11.172
  861MPD2    C512641   4.155   3.196  11.240
  861MPD2     H12642   3.959   3.453  11.429
  861MPD2    H112643   4.019   3.224  11.075
  861MPD2    H212644   4.269   3.157  11.414
  861MPD2    H312645   4.212   3.113  11.198
  861MPD2     N12646   3.860   3.397  11.176
  861MPD2    H512647   3.862   3.370  11.078
  861MPD2    N112648   4.144   3.351  11.579
  861MPD2    H712649   4.079   3.416  11.623
  862MPD2     C12650   3.674   3.464  10.547
  862MPD2    C112651   3.621   3.394  10.650
  862MPD2    C212652   3.609   3.256  10.639
  862MPD2    C312653   3.638   3.189  10.524
  862MPD2    C412654   3.695   3.262  10.421
  862MPD2    C512655   3.709   3.397  10.433
  862MPD2     H12656   3.563   3.198  10.719
  862MPD2    H112657   3.722   3.205  10.333
  862MPD2    H212658   3.674   3.572  10.555
  862MPD2    H312659   3.730   3.459  10.347
  862MPD2     N12660   3.620   3.052  10.506
  862MPD2    H512661   3.652   3.022  10.415
  862MPD2    N112662   3.574   3.452  10.772
  862MPD2    H712663   3.558   3.391  10.852
  863MPD2     C12664   2.458   1.154  17.146
  863MPD2    C112665   2.508   1.278  17.163
  863MPD2    C212666   2.616   1.287  17.249
  863MPD2    C312667   2.665   1.181  17.324
  863MPD2    C412668   2.619   1.057  17.296
  863MPD2    C512669   2.518   1.038  17.207
  863MPD2     H12670   2.656   1.386  17.267
  863MPD2    H112671   2.664   0.965  17.332
  863MPD2    H212672   2.372   1.134  17.083
  863MPD2    H312673   2.481   0.940  17.182
  863MPD2     N12674   2.772   1.187  17.420
  863MPD2    H512675   2.782   1.105  17.479
  863MPD2    N112676   2.452   1.380  17.079
  863MPD2    H712677   2.366   1.352  17.033
  864MPD2     C12678   2.957   3.224  17.176
  864MPD2    C112679   3.030   3.113  17.142
  864MPD2    C212680   3.158   3.128  17.091
  864MPD2    C312681   3.211   3.255  17.066
  864MPD2    C412682   3.136   3.362  17.096
  864MPD2    C512683   3.012   3.346  17.153
  864MPD2     H12684   3.214   3.037  17.071
  864MPD2    H112685   3.165   3.466  17.086
  864MPD2    H212686   2.860   3.221  17.224
  864MPD2    H312687   2.948   3.427  17.185
  864MPD2     N12688   3.338   3.272  17.014
  864MPD2    H512689   3.368   3.363  16.981
  864MPD2    N112690   2.977   2.985  17.170
  864MPD2    H712691   2.905   2.975  17.241
  865MPD2     C12692   3.145   2.969  16.276
  865MPD2    C112693   3.271   2.919  16.316
  865MPD2    C212694   3.344   2.993  16.410
  865MPD2    C312695   3.296   3.111  16.467
  865MPD2    C412696   3.169   3.140  16.438
  865MPD2    C512697   3.100   3.081  16.335
  865MPD2     H12698   3.444   2.961  16.435
  865MPD2    H112699   3.135   3.234  16.480
  865MPD2    H212700   3.085   2.929  16.195
  865MPD2    H312701   3.002   3.124  16.314
  865MPD2     N12702   3.377   3.198  16.540
  865MPD2    H512703   3.333   3.259  16.608
  865MPD2    N112704   3.320   2.797  16.266
  865MPD2    H712705   3.254   2.729  16.230
  866MPD2     C12706   4.747   3.619  11.852
  866MPD2    C112707   4.719   3.563  11.728
  866MPD2    C212708   4.601   3.591  11.651
  866MPD2    C312709   4.509   3.677  11.707
  866MPD2    C412710   4.535   3.734  11.829
  866MPD2    C512711   4.649   3.703  11.897
  866MPD2     H12712   4.576   3.545  11.556
  866MPD2    H112713   4.460   3.798  11.874
  866MPD2    H212714   0.034   3.613  11.910
  866MPD2    H312715   4.664   3.748  11.995
  866MPD2     N12716   4.395   3.715  11.637
  866MPD2    H512717   4.341   3.790  11.679
  866MPD2    N112718   0.018   3.485  11.679
  866MPD2    H712719   0.106   3.477  11.730
  867MPD2     C12720   1.802   2.898  16.791
  867MPD2    C112721   1.896   2.871  16.890
  867MPD2    C212722   1.940   2.973  16.964
  867MPD2    C312723   1.886   3.098  16.951
  867MPD2    C412724   1.799   3.121  16.843
  867MPD2    C512725   1.749   3.020  16.774
  867MPD2     H12726   2.018   2.959  17.037
  867MPD2    H112727   1.753   3.219  16.833
  867MPD2    H212728   1.774   2.833  16.709
  867MPD2    H312729   1.693   3.044  16.685
  867MPD2     N12730   1.933   3.209  17.017
  867MPD2    H512731   1.875   3.290  16.995
  867MPD2    N112732   1.954   2.739  16.889
  867MPD2    H712733   1.896   2.667  16.847
  868MPD2     C12734   3.880   1.501  13.378
  868MPD2    C112735   3.947   1.620  13.404
  868MPD2    C212736   3.878   1.731  13.438
  868MPD2    C312737   3.742   1.721  13.454
  868MPD2    C412738   3.672   1.605  13.432
  868MPD2    C512739   3.744   1.492  13.391
  868MPD2     H12740   3.934   1.820  13.462
  868MPD2    H112741   3.566   1.590  13.451
  868MPD2    H212742   3.935   1.408  13.377
  868MPD2    H312743   3.696   1.395  13.384
  868MPD2     N12744   3.676   1.835  13.513
  868MPD2    H512745   3.736   1.906  13.555
  868MPD2    N112746   4.082   1.621  13.380
  868MPD2    H712747   4.115   1.532  13.344
  869MPD2     C12748   4.593   0.111  19.748
  869MPD2    C112749   4.694   0.017  19.717
  869MPD2    C212750   0.002   0.045  19.654
  869MPD2    C312751   0.025   0.174  19.613
  869MPD2    C412752   4.728   0.268  19.636
  869MPD2    C512753   4.612   0.241  19.698
  869MPD2     H12754   0.084   4.778  19.653
  869MPD2    H112755   4.746   0.371  19.610
  869MPD2    H212756   4.497   0.077  19.784
  869MPD2    H312757   4.543   0.324  19.709
  869MPD2     N12758   0.143   0.214  19.550
  869MPD2    H512759   0.150   0.311  19.520
  869MPD2    N112760   4.670   4.691  19.759
  869MPD2    H712761   4.611   4.686  19.842
  870MPD2     C12762   0.259   3.499  19.023
  870MPD2    C112763   0.129   3.470  19.052
  870MPD2    C212764   0.027   3.550  19.004
  870MPD2    C312765   0.055   3.659  18.918
  870MPD2    C412766   0.187   3.681  18.880
  870MPD2    C512767   0.289   3.607  18.936
  870MPD2     H12768   4.729   3.532  19.032
  870MPD2    H112769   0.219   3.767  18.822
  870MPD2    H212770   0.332   3.428  19.056
  870MPD2    H312771   0.392   3.629  18.914
  870MPD2     N12772   4.760   3.746  18.884
  870MPD2    H512773   4.678   3.753  18.943
  870MPD2    N112774   0.108   3.349  19.125
  870MPD2    H712775   0.190   3.305  19.165
  871MPD2     C12776   1.143   2.822  16.454
  871MPD2    C112777   1.151   2.795  16.589
  871MPD2    C212778   1.226   2.682  16.629
  871MPD2    C312779   1.295   2.605  16.532
  871MPD2    C412780   1.290   2.637  16.398
  871MPD2    C512781   1.218   2.748  16.361
  871MPD2     H12782   1.238   2.668  16.736
  871MPD2    H112783   1.339   2.573  16.325
  871MPD2    H212784   1.083   2.899  16.407
  871MPD2    H312785   1.210   2.764  16.254
  871MPD2     N12786   1.384   2.505  16.579
  871MPD2    H512787   1.377   2.495  16.680
  871MPD2    N112788   1.067   2.866  16.676
  871MPD2    H712789   1.012   2.938  16.632
  872MPD2     C12790   1.892   0.475  14.382
  872MPD2    C112791   1.845   0.588  14.319
  872MPD2    C212792   1.707   0.624  14.325
  872MPD2    C312793   1.625   0.546  14.408
  872MPD2    C412794   1.674   0.435  14.467
  872MPD2    C512795   1.805   0.398  14.458
  872MPD2     H12796   1.665   0.706  14.269
  872MPD2    H112797   1.606   0.370  14.520
  872MPD2    H212798   1.995   0.444  14.368
  872MPD2    H312799   1.841   0.310  14.510
  872MPD2     N12800   1.491   0.566  14.430
  872MPD2    H512801   1.449   0.509  14.502
  872MPD2    N112802   1.924   0.675  14.244
  872MPD2    H712803   1.879   0.747  14.188
  873MPD2     C12804   4.160   0.294  18.545
  873MPD2    C112805   4.037   0.326  18.496
  873MPD2    C212806   3.935   0.229  18.486
  873MPD2    C312807   3.960   0.098  18.533
  873MPD2    C412808   4.084   0.064  18.577
  873MPD2    C512809   4.182   0.162  18.583
  873MPD2     H12810   3.839   0.253  18.442
  873MPD2    H112811   4.100   4.768  18.612
  873MPD2    H212812   4.230   0.375  18.562
  873MPD2    H312813   4.273   0.131  18.632
  873MPD2     N12814   3.857   0.006  18.547
  873MPD2    H512815   3.886   4.720  18.582
  873MPD2    N112816   4.015   0.461  18.480
  873MPD2    H712817   4.088   0.517  18.522
  874MPD2     C12818   3.266   0.667  16.251
  874MPD2    C112819   3.320   0.622  16.369
  874MPD2    C212820   3.420   0.704  16.416
  874MPD2    C312821   3.471   0.814  16.363
  874MPD2    C412822   3.410   0.853  16.242
  874MPD2    C512823   3.311   0.776  16.189
  874MPD2     H12824   3.463   0.675  16.511
  874MPD2    H112825   3.448   0.939  16.188
  874MPD2    H212826   3.187   0.612  16.201
  874MPD2    H312827   3.277   0.800  16.089
  874MPD2     N12828   3.586   0.874  16.411
  874MPD2    H512829   3.623   0.835  16.497
  874MPD2    N112830   3.285   0.492  16.421
  874MPD2    H712831   3.200   0.458  16.377
  875MPD2     C12832   4.657   3.786  14.574
  875MPD2    C112833   4.540   3.744  14.632
  875MPD2    C212834   4.534   3.732  14.768
  875MPD2    C312835   4.651   3.754  14.847
  875MPD2    C412836   4.761   3.799  14.782
  875MPD2    C512837   4.758   3.819  14.650
  875MPD2     H12838   4.442   3.705  14.818
  875MPD2    H112839   0.054   3.809  14.829
  875MPD2    H212840   4.666   3.811  14.469
  875MPD2    H312841   0.041   3.853  14.596
  875MPD2     N12842   4.657   3.755  14.984
  875MPD2    H512843   4.744   3.778  15.031
  875MPD2    N112844   4.416   3.712  14.563
  875MPD2    H712845   4.329   3.705  14.615
  876MPD2     C12846   3.068   0.053  16.208
  876MPD2    C112847   3.205   0.026  16.219
  876MPD2    C212848   3.244   4.710  16.265
  876MPD2    C312849   3.150   4.616  16.304
  876MPD2    C412850   3.017   4.651  16.310
  876MPD2    C512851   2.977   4.768  16.249
  876MPD2     H12852   3.346   4.677  16.254
  876MPD2    H112853   2.936   4.590  16.347
  876MPD2    H212854   3.039   0.145  16.158
  876MPD2    H312855   2.871   4.785  16.236
  876MPD2     N12856   3.198   4.485  16.333
  876MPD2    H512857   3.297   4.464  16.331
  876MPD2    N112858   3.291   0.124  16.168
  876MPD2    H712859   3.249   0.201  16.117
  877MPD2     C12860   3.178   0.620  15.665
  877MPD2    C112861   3.300   0.571  15.636
  877MPD2    C212862   3.347   0.578  15.504
  877MPD2    C312863   3.277   0.637  15.400
  877MPD2    C412864   3.145   0.679  15.432
  877MPD2    C512865   3.102   0.668  15.563
  877MPD2     H12866   3.449   0.544  15.486
  877MPD2    H112867   3.081   0.723  15.356
  877MPD2    H212868   3.140   0.613  15.766
  877MPD2    H312869   2.997   0.687  15.584
  877MPD2     N12870   3.322   0.648  15.264
  877MPD2    H512871   3.256   0.681  15.194
  877MPD2    N112872   3.378   0.500  15.738
  877MPD2    H712873   3.464   0.456  15.708
  878MPD2     C12874   2.949   4.752  13.635
  878MPD2    C112875   3.037   0.054  13.653
  878MPD2    C212876   3.041   0.130  13.769
  878MPD2    C312877   2.948   0.106  13.870
  878MPD2    C412878   2.856   0.002  13.848
  878MPD2    C512879   2.854   4.741  13.733
  878MPD2     H12880   3.109   0.213  13.775
  878MPD2    H112881   2.794   4.765  13.926
  878MPD2    H212882   2.958   4.689  13.547
  878MPD2    H312883   2.785   4.657  13.735
  878MPD2     N12884   2.952   0.178  13.997
  878MPD2    H512885   3.035   0.234  14.016
  878MPD2    N112886   3.115   0.086  13.534
  878MPD2    H712887   3.096   0.037  13.448
  879MPD2     C12888   3.455   1.386  17.418
  879MPD2    C112889   3.518   1.267  17.393
  879MPD2    C212890   3.464   1.166  17.315
  879MPD2    C312891   3.340   1.188  17.259
  879MPD2    C412892   3.269   1.302  17.286
  879MPD2    C512893   3.333   1.397  17.371
  879MPD2     H12894   3.522   1.078  17.291
  879MPD2    H112895   3.171   1.325  17.244
  879MPD2    H212896   3.480   1.461  17.492
  879MPD2    H312897   3.273   1.482  17.401
  879MPD2     N12898   3.280   1.093  17.178
  879MPD2    H512899   3.199   1.120  17.123
  879MPD2    N112900   3.631   1.249  17.470
  879MPD2    H712901   3.670   1.333  17.510
  880MPD2     C12902   4.593   2.950  18.671
  880MPD2    C112903   4.680   3.044  18.606
  880MPD2    C212904   0.006   3.047  18.645
  880MPD2    C312905   0.057   2.974  18.745
  880MPD2    C412906   4.774   2.889  18.820
  880MPD2    C512907   4.643   2.881  18.781
  880MPD2     H12908   0.068   3.120  18.596
  880MPD2    H112909   4.799   2.834  18.911
  880MPD2    H212910   4.489   2.940  18.642
  880MPD2    H312911   4.581   2.814  18.840
  880MPD2     N12912   0.185   2.982  18.778
  880MPD2    H512913   0.239   3.060  18.743
  880MPD2    N112914   4.623   3.125  18.504
  880MPD2    H712915   4.530   3.107  18.467
  881MPD2     C12916   4.797   3.858  17.721
  881MPD2    C112917   0.018   3.721  17.709
  881MPD2    C212918   4.767   3.635  17.804
  881MPD2    C312919   4.685   3.677  17.909
  881MPD2    C412920   4.661   3.813  17.909
  881MPD2    C512921   4.704   3.900  17.810
  881MPD2     H12922   4.777   3.529  17.787
  881MPD2    H112923   4.589   3.858  17.976
  881MPD2    H212924   0.031   3.932  17.652
  881MPD2    H312925   4.678   4.005  17.820
  881MPD2     N12926   4.619   3.592  17.999
  881MPD2    H512927   4.565   3.635  18.073
  881MPD2    N112928   0.090   3.682  17.596
  881MPD2    H712929   0.106   3.753  17.526
  882MPD2     C12930   3.195   0.569  14.450
  882MPD2    C112931   3.156   0.599  14.580
  882MPD2    C212932   3.022   0.627  14.607
  882MPD2    C312933   2.931   0.604  14.508
  882MPD2    C412934   2.976   0.569  14.384
  882MPD2    C512935   3.108   0.566  14.352
  882MPD2     H12936   2.996   0.648  14.710
  882MPD2    H112937   2.900   0.551  14.309
  882MPD2    H212938   3.299   0.549  14.426
  882MPD2    H312939   3.140   0.552  14.249
  882MPD2     N12940   2.793   0.609  14.527
  882MPD2    H512941   2.733   0.581  14.450
  882MPD2    N112942   3.265   0.607  14.674
  882MPD2    H712943   3.354   0.575  14.637
  883MPD2     C12944   0.316   0.237  16.441
  883MPD2    C112945   0.365   0.326  16.352
  883MPD2    C212946   0.471   0.406  16.387
  883MPD2    C312947   0.529   0.403  16.517
  883MPD2    C412948   0.478   0.306  16.602
  883MPD2    C512949   0.373   0.230  16.561
  883MPD2     H12950   0.519   0.471  16.315
  883MPD2    H112951   0.512   0.287  16.703
  883MPD2    H212952   0.222   0.185  16.429
  883MPD2    H312953   0.332   0.166  16.637
  883MPD2     N12954   0.639   0.487  16.536
  883MPD2    H512955   0.677   0.539  16.457
  883MPD2    N112956   0.315   0.340  16.224
  883MPD2    H712957   0.341   0.415  16.161
  884MPD2     C12958   2.294   1.184  15.707
  884MPD2    C112959   2.262   1.264  15.597
  884MPD2    C212960   2.140   1.322  15.597
  884MPD2    C312961   2.042   1.289  15.686
  884MPD2    C412962   2.069   1.203  15.786
  884MPD2    C512963   2.199   1.160  15.802
  884MPD2     H12964   2.114   1.391  15.517
  884MPD2    H112965   1.989   1.161  15.846
  884MPD2    H212966   2.395   1.147  15.722
  884MPD2    H312967   2.225   1.094  15.884
  884MPD2     N12968   1.910   1.337  15.677
  884MPD2    H512969   1.901   1.389  15.590
  884MPD2    N112970   2.344   1.288  15.489
  884MPD2    H712971   2.305   1.340  15.411
  885MPD2     C12972   0.601   1.446  18.324
  885MPD2    C112973   0.706   1.540  18.342
  885MPD2    C212974   0.717   1.632  18.240
  885MPD2    C312975   0.634   1.626  18.118
  885MPD2    C412976   0.535   1.528  18.113
  885MPD2    C512977   0.526   1.437  18.214
  885MPD2     H12978   0.791   1.711  18.242
  885MPD2    H112979   0.485   1.507  18.019
  885MPD2    H212980   0.584   1.371  18.400
  885MPD2    H312981   0.465   1.348  18.202
  885MPD2     N12982   0.654   1.708  18.006
  885MPD2    H512983   0.745   1.753  18.008
  885MPD2    N112984   0.792   1.540  18.453
  885MPD2    H712985   0.782   1.461  18.516
  886MPD2     C12986   1.902   0.002  15.605
  886MPD2    C112987   2.024   0.045  15.563
  886MPD2    C212988   2.045   0.181  15.560
  886MPD2    C312989   1.948   0.272  15.609
  886MPD2    C412990   1.821   0.226  15.630
  886MPD2    C512991   1.807   0.091  15.637
  886MPD2     H12992   2.138   0.221  15.521
  886MPD2    H112993   1.732   0.277  15.665
  886MPD2    H212994   1.884   4.701  15.623
  886MPD2    H312995   1.711   0.054  15.673
  886MPD2     N12996   1.975   0.405  15.645
  886MPD2    H512997   1.899   0.472  15.648
  886MPD2    N112998   2.132   4.769  15.509
  886MPD2    H712999   2.226   0.002  15.509
  887MPD2     C13000   2.763   4.733  15.843
  887MPD2    C113001   2.661   4.798  15.775
  887MPD2    C213002   2.626   0.122  15.812
  887MPD2    C313003   2.689   0.193  15.909
  887MPD2    C413004   2.793   0.124  15.967
  887MPD2    C513005   2.827   4.798  15.945
  887MPD2     H13006   2.556   0.177  15.751
  887MPD2    H113007   2.846   0.163  16.053
  887MPD2    H213008   2.794   4.629  15.832
  887MPD2    H313009   2.906   4.751  16.002
  887MPD2     N13010   2.634   0.312  15.968
  887MPD2    H513011   2.552   0.352  15.924
  887MPD2    N113012   2.576   4.737  15.678
  887MPD2    H713013   2.509   4.791  15.623
  888MPD2     C13014   4.320   0.083  14.876
  888MPD2    C113015   4.310   0.113  15.014
  888MPD2    C213016   4.350   0.236  15.065
  888MPD2    C313017   4.375   0.335  14.974
  888MPD2    C413018   4.368   0.311  14.839
  888MPD2    C513019   4.351   0.184  14.792
  888MPD2     H13020   4.344   0.262  15.170
  888MPD2    H113021   4.376   0.390  14.766
  888MPD2    H213022   4.307   4.786  14.840
  888MPD2    H313023   4.351   0.165  14.685
  888MPD2     N13024   4.428   0.454  15.028
  888MPD2    H513025   4.440   0.463  15.129
  888MPD2    N113026   4.290   0.008  15.109
  888MPD2    H713027   4.317   0.020  15.206
  889MPD2     C13028   3.568   0.048  13.088
  889MPD2    C113029   3.600   4.780  13.199
  889MPD2    C213030   3.605   0.042  13.317
  889MPD2    C313031   3.579   0.181  13.325
  889MPD2    C413032   3.554   0.252  13.207
  889MPD2    C513033   3.559   0.185  13.090
  889MPD2     H13034   3.632   4.794  13.408
  889MPD2    H113035   3.534   0.358  13.201
  889MPD2    H213036   3.564   4.802  12.993
  889MPD2    H313037   3.549   0.246  13.001
  889MPD2     N13038   3.579   0.248  13.453
  889MPD2    H513039   3.619   0.194  13.530
  889MPD2    N113040   3.645   4.645  13.186
  889MPD2    H713041   3.682   4.612  13.275
  890MPD2     C13042   3.379   1.128  14.760
  890MPD2    C113043   3.480   1.188  14.830
  890MPD2    C213044   3.490   1.158  14.966
  890MPD2    C313045   3.395   1.085  15.028
  890MPD2    C413046   3.296   1.029  14.963
  890MPD2    C513047   3.292   1.044  14.829
  890MPD2     H13048   3.575   1.194  15.022
  890MPD2    H113049   3.235   0.959  15.018
  890MPD2    H213050   3.374   1.140  14.653
  890MPD2    H313051   3.227   0.982  14.769
  890MPD2     N13052   3.432   1.056  15.157
  890MPD2    H513053   3.509   1.117  15.184
  890MPD2    N113054   3.565   1.275  14.763
  890MPD2    H713055   3.536   1.315  14.675
  891MPD2     C13056   1.076   4.392  16.757
  891MPD2    C113057   1.098   4.514  16.690
  891MPD2    C213058   1.223   4.571  16.703
  891MPD2    C313059   1.325   4.494  16.763
  891MPD2    C413060   1.304   4.371  16.817
  891MPD2    C513061   1.176   4.320  16.815
  891MPD2     H13062   1.253   4.666  16.661
  891MPD2    H113063   1.381   4.305  16.854
  891MPD2    H213064   0.974   4.356  16.756
  891MPD2    H313065   1.147   4.224  16.856
  891MPD2     N13066   1.454   4.552  16.769
  891MPD2    H513067   1.457   4.652  16.750
  891MPD2    N113068   0.987   4.581  16.637
  891MPD2    H713069   0.895   4.541  16.654
  892MPD2     C13070   2.346   0.934  15.366
  892MPD2    C113071   2.255   0.906  15.266
  892MPD2    C213072   2.302   0.837  15.154
  892MPD2    C313073   2.430   0.793  15.143
  892MPD2    C413074   2.519   0.827  15.238
  892MPD2    C513075   2.475   0.905  15.340
  892MPD2     H13076   2.231   0.822  15.073
  892MPD2    H113077   2.620   0.787  15.240
  892MPD2    H213078   2.320   0.996  15.451
  892MPD2    H313079   2.547   0.931  15.417
  892MPD2     N13080   2.470   0.704  15.044
  892MPD2    H513081   2.569   0.680  15.046
  892MPD2    N113082   2.122   0.953  15.279
  892MPD2    H713083   2.066   0.956  15.194
  893MPD2     C13084   4.398   4.286  19.015
  893MPD2    C113085   4.277   4.348  19.032
  893MPD2    C213086   4.170   4.280  19.083
  893MPD2    C313087   4.205   4.155  19.140
  893MPD2    C413088   4.334   4.107  19.141
  893MPD2    C513089   4.431   4.172  19.077
  893MPD2     H13090   4.071   4.323  19.079
  893MPD2    H113091   4.365   4.021  19.200
  893MPD2    H213092   4.476   4.337  18.958
  893MPD2    H313093   4.534   4.137  19.082
  893MPD2     N13094   4.118   4.074  19.210
  893MPD2    H513095   4.147   3.986  19.251
  893MPD2    N113096   4.262   4.485  18.995
  893MPD2    H713097   4.315   4.513  18.913
  894MPD2     C13098   2.108   1.687  18.993
  894MPD2    C113099   2.056   1.795  19.064
  894MPD2    C213100   2.056   1.922  19.005
  894MPD2    C313101   2.126   1.942  18.886
  894MPD2    C413102   2.171   1.830  18.809
  894MPD2    C513103   2.161   1.705  18.868
  894MPD2     H13104   2.007   2.000  19.061
  894MPD2    H113105   2.207   1.840  18.707
  894MPD2    H213106   2.137   1.594  19.042
  894MPD2    H313107   2.203   1.628  18.804
  894MPD2     N13108   2.154   2.077  18.844
  894MPD2    H513109   2.098   2.145  18.895
  894MPD2    N113110   2.018   1.782  19.199
  894MPD2    H713111   1.985   1.863  19.249
  895MPD2     C13112   1.486   0.266  14.048
  895MPD2    C113113   1.476   0.134  14.011
  895MPD2    C213114   1.576   0.042  14.053
  895MPD2    C313115   1.692   0.088  14.118
  895MPD2    C413116   1.700   0.217  14.154
  895MPD2    C513117   1.603   0.306  14.116
  895MPD2     H13118   1.578   4.745  14.017
  895MPD2    H113119   1.784   0.253  14.213
  895MPD2    H213120   1.421   0.340  14.002
  895MPD2    H313121   1.616   0.413  14.127
  895MPD2     N13122   1.814   0.018  14.138
  895MPD2    H513123   1.886   0.069  14.188
  895MPD2    N113124   1.372   0.089  13.931
  895MPD2    H713125   1.382   0.006  13.873
  896MPD2     C13126   3.774   2.535  19.480
  896MPD2    C113127   3.761   2.453  19.369
  896MPD2    C213128   3.637   2.416  19.335
  896MPD2    C313129   3.524   2.470  19.397
  896MPD2    C413130   3.539   2.546  19.509
  896MPD2    C513131   3.665   2.580  19.552
  896MPD2     H13132   3.615   2.351  19.251
  896MPD2    H113133   3.452   2.577  19.566
  896MPD2    H213134   3.875   2.558  19.514
  896MPD2    H313135   3.670   2.643  19.640
  896MPD2     N13136   3.402   2.432  19.348
  896MPD2    H513137   3.401   2.363  19.274
  896MPD2    N113138   3.874   2.420  19.293
  896MPD2    H713139   3.959   2.456  19.335
  897MPD2     C13140   0.159   3.989  10.746
  897MPD2    C113141   0.116   4.119  10.770
  897MPD2    C213142   0.002   4.143  10.845
  897MPD2    C313143   4.736   4.039  10.900
  897MPD2    C413144   4.770   3.910  10.873
  897MPD2    C513145   0.082   3.884  10.799
  897MPD2     H13146   4.775   4.244  10.866
  897MPD2    H113147   4.710   3.828  10.911
  897MPD2    H213148   0.240   3.958  10.681
  897MPD2    H313149   0.103   3.780  10.778
  897MPD2     N13150   4.614   4.069  10.973
  897MPD2    H513151   4.592   4.168  10.971
  897MPD2    N113152   0.187   4.235  10.723
  897MPD2    H713153   0.255   4.214  10.651
  898MPD2     C13154   1.713   4.801  17.697
  898MPD2    C113155   1.835   0.033  17.648
  898MPD2    C213156   1.862   0.163  17.614
  898MPD2    C313157   1.766   0.255  17.633
  898MPD2    C413158   1.639   0.217  17.678
  898MPD2    C513159   1.616   0.089  17.704
  898MPD2     H13160   1.958   0.190  17.572
  898MPD2    H113161   1.552   0.281  17.682
  898MPD2    H213162   1.695   4.697  17.722
  898MPD2    H313163   1.516   0.053  17.725
  898MPD2     N13164   1.805   0.390  17.600
  898MPD2    H513165   1.893   0.408  17.554
  898MPD2    N113166   1.935   4.744  17.639
  898MPD2    H713167   2.021   4.781  17.601
  899MPD2     C13168   2.907   0.738  17.789
  899MPD2    C113169   2.957   0.845  17.861
  899MPD2    C213170   2.956   0.847  17.998
  899MPD2    C313171   2.884   0.750  18.064
  899MPD2    C413172   2.841   0.637  17.994
  899MPD2    C513173   2.855   0.629  17.857
  899MPD2     H13174   3.006   0.928  18.049
  899MPD2    H113175   2.799   0.552  18.046
  899MPD2    H213176   2.911   0.740  17.681
  899MPD2    H313177   2.816   0.544  17.803
  899MPD2     N13178   2.865   0.753  18.200
  899MPD2    H513179   2.855   0.659  18.237
  899MPD2    N113180   2.999   0.959  17.785
  899MPD2    H713181   3.003   0.948  17.684
  900MPD2     C13182   2.487   2.767  12.841
  900MPD2    C113183   2.417   2.653  12.883
  900MPD2    C213184   2.295   2.623  12.829
  900MPD2    C313185   2.235   2.713  12.738
  900MPD2    C413186   2.298   2.834  12.700
  900MPD2    C513187   2.422   2.855  12.760
  900MPD2     H13188   2.241   2.529  12.835
  900MPD2    H113189   2.271   2.914  12.634
  900MPD2    H213190   2.588   2.786  12.876
  900MPD2    H313191   2.483   2.940  12.733
  900MPD2     N13192   2.118   2.666  12.674
  900MPD2    H513193   2.075   2.578  12.700
  900MPD2    N113194   2.488   2.566  12.974
  900MPD2    H713195   2.579   2.597  13.008
  901MPD2     C13196   2.488   1.566  13.162
  901MPD2    C113197   2.617   1.610  13.151
  901MPD2    C213198   2.658   1.741  13.165
  901MPD2    C313199   2.562   1.833  13.189
  901MPD2    C413200   2.426   1.792  13.190
  901MPD2    C513201   2.395   1.659  13.173
  901MPD2     H13202   2.759   1.781  13.172
  901MPD2    H113203   2.353   1.872  13.200
  901MPD2    H213204   2.470   1.459  13.161
  901MPD2    H313205   2.292   1.629  13.186
  901MPD2     N13206   2.604   1.967  13.210
  901MPD2    H513207   2.704   1.982  13.206
  901MPD2    N113208   2.704   1.503  13.136
  901MPD2    H713209   2.669   1.411  13.111
  902MPD2     C13210   1.474   0.400  13.183
  902MPD2    C113211   1.514   0.531  13.203
  902MPD2    C213212   1.638   0.572  13.159
  902MPD2    C313213   1.721   0.481  13.096
  902MPD2    C413214   1.681   0.349  13.082
  902MPD2    C513215   1.554   0.310  13.118
  902MPD2     H13216   1.667   0.675  13.171
  902MPD2    H113217   1.751   0.272  13.054
  902MPD2    H213218   1.377   0.372  13.224
  902MPD2    H313219   1.525   0.206  13.111
  902MPD2     N13220   1.838   0.521  13.026
  902MPD2    H513221   1.891   0.452  12.973
  902MPD2    N113222   1.420   0.623  13.263
  902MPD2    H713223   1.336   0.579  13.301
  903MPD2     C13224   1.812   0.918  12.245
  903MPD2    C113225   1.778   0.834  12.346
  903MPD2    C213226   1.690   0.735  12.326
  903MPD2    C313227   1.624   0.718  12.209
  903MPD2    C413228   1.646   0.805  12.105
  903MPD2    C513229   1.743   0.902  12.123
  903MPD2     H13230   1.666   0.657  12.397
  903MPD2    H113231   1.601   0.797  12.007
  903MPD2    H213232   1.876   1.004  12.257
  903MPD2    H313233   1.763   0.978  12.048
  903MPD2     N13234   1.527   0.616  12.205
  903MPD2    H513235   1.518   0.567  12.294
  903MPD2    N113236   1.855   0.850  12.471
  903MPD2    H713237   1.927   0.920  12.486
  904MPD2     C13238   1.338   4.420  14.067
  904MPD2    C113239   1.314   4.328  14.167
  904MPD2    C213240   1.403   4.328  14.270
  904MPD2    C313241   1.513   4.412  14.284
  904MPD2    C413242   1.520   4.512  14.195
  904MPD2    C513243   1.439   4.506  14.084
  904MPD2     H13244   1.385   4.259  14.351
  904MPD2    H113245   1.600   4.585  14.202
  904MPD2    H213246   1.282   4.432  13.975
  904MPD2    H313247   1.441   4.575  14.001
  904MPD2     N13248   1.604   4.378  14.388
  904MPD2    H513249   1.588   4.289  14.434
  904MPD2    N113250   1.211   4.238  14.163
  904MPD2    H713251   1.223   4.158  14.224
  905MPD2     C13252   1.265   4.355  13.452
  905MPD2    C113253   1.250   4.447  13.557
  905MPD2    C213254   1.364   4.511  13.598
  905MPD2    C313255   1.485   4.482  13.538
  905MPD2    C413256   1.487   4.397  13.433
  905MPD2    C513257   1.381   4.329  13.387
  905MPD2     H13258   1.363   4.576  13.684
  905MPD2    H113259   1.580   4.353  13.398
  905MPD2    H213260   1.180   4.294  13.424
  905MPD2    H313261   1.390   4.257  13.307
  905MPD2     N13262   1.608   4.533  13.589
  905MPD2    H513263   1.692   4.491  13.551
  905MPD2    N113264   1.129   4.444  13.627
  905MPD2    H713265   1.061   4.373  13.604
  906MPD2     C13266   3.547   4.615  11.520
  906MPD2    C113267   3.517   4.511  11.437
  906MPD2    C213268   3.457   4.392  11.480
  906MPD2    C313269   3.404   4.391  11.607
  906MPD2    C413270   3.430   4.497  11.691
  906MPD2    C513271   3.502   4.612  11.650
  906MPD2     H13272   3.442   4.313  11.407
  906MPD2    H113273   3.397   4.496  11.794
  906MPD2    H213274   3.594   4.704  11.480
  906MPD2    H313275   3.520   4.699  11.712
  906MPD2     N13276   3.320   4.296  11.663
  906MPD2    H513277   3.279   4.322  11.752
  906MPD2    N113278   3.543   4.526  11.298
  906MPD2    H713279   3.510   4.451  11.237
  907MPD2     C13280   2.030   3.544  15.634
  907MPD2    C113281   2.140   3.479  15.595
  907MPD2    C213282   2.242   3.445  15.684
  907MPD2    C313283   2.235   3.489  15.809
  907MPD2    C413284   2.132   3.567  15.849
  907MPD2    C513285   2.030   3.590  15.761
  907MPD2     H13286   2.324   3.385  15.647
  907MPD2    H113287   2.119   3.604  15.950
  907MPD2    H213288   1.936   3.558  15.582
  907MPD2    H313289   1.948   3.643  15.807
  907MPD2     N13290   2.348   3.455  15.889
  907MPD2    H513291   2.417   3.388  15.858
  907MPD2    N113292   2.148   3.429  15.460
  907MPD2    H713293   2.232   3.375  15.440
  908MPD2     C13294   0.379   4.310   9.911
  908MPD2    C113295   0.363   4.212  10.008
  908MPD2    C213296   0.334   4.248  10.138
  908MPD2    C313297   0.341   4.383  10.173
  908MPD2    C413298   0.354   4.476  10.079
  908MPD2    C513299   0.374   4.439   9.951
  908MPD2     H13300   0.327   4.177  10.220
  908MPD2    H113301   0.356   4.583  10.095
  908MPD2    H213302   0.380   4.296   9.804
  908MPD2    H313303   0.392   4.509   9.870
  908MPD2     N13304   0.337   4.416  10.313
  908MPD2    H513305   0.320   4.342  10.380
  908MPD2    N113306   0.372   4.078   9.965
  908MPD2    H713307   0.408   4.065   9.871
  909MPD2     C13308   0.635   2.270  11.696
  909MPD2    C113309   0.554   2.373  11.661
  909MPD2    C213310   0.461   2.421  11.748
  909MPD2    C313311   0.447   2.370  11.878
  909MPD2    C413312   0.538   2.274  11.912
  909MPD2    C513313   0.630   2.220  11.820
  909MPD2     H13314   0.403   2.511  11.732
  909MPD2    H113315   0.536   2.235  12.013
  909MPD2    H213316   0.712   2.231  11.630
  909MPD2    H313317   0.704   2.148  11.853
  909MPD2     N13318   0.358   2.431  11.964
  909MPD2    H513319   0.292   2.492  11.915
  909MPD2    N113320   0.567   2.446  11.540
  909MPD2    H713321   0.505   2.523  11.520
  910MPD2     C13322   1.707   4.351  16.510
  910MPD2    C113323   1.762   4.258  16.417
  910MPD2    C213324   1.716   4.255  16.288
  910MPD2    C313325   1.627   4.352  16.248
  910MPD2    C413326   1.591   4.448  16.333
  910MPD2    C513327   1.631   4.458  16.464
  910MPD2     H13328   1.742   4.171  16.225
  910MPD2    H113329   1.524   4.524  16.295
  910MPD2    H213330   1.731   4.361  16.616
  910MPD2    H313331   1.584   4.534  16.526
  910MPD2     N13332   1.560   4.357  16.123
  910MPD2    H513333   1.503   4.439  16.104
  910MPD2    N113334   1.845   4.153  16.459
  910MPD2    H713335   1.876   4.086  16.389
  911MPD2     C13336   4.409   4.412  16.203
  911MPD2    C113337   4.443   4.479  16.322
  911MPD2    C213338   4.416   4.612  16.330
  911MPD2    C313339   4.344   4.675  16.230
  911MPD2    C413340   4.329   4.606  16.116
  911MPD2    C513341   4.364   4.478  16.096
  911MPD2     H13342   4.442   4.669  16.418
  911MPD2    H113343   4.281   4.648  16.028
  911MPD2    H213344   4.434   4.308  16.186
  911MPD2    H313345   4.342   4.430  16.001
  911MPD2     N13346   4.276   4.798  16.240
  911MPD2    H513347   4.235   0.031  16.155
  911MPD2    N113348   4.515   4.410  16.425
  911MPD2    H713349   4.548   4.315  16.413
  912MPD2     C13350   4.024   4.671  15.869
  912MPD2    C113351   3.992   4.661  16.002
  912MPD2    C213352   3.990   4.535  16.059
  912MPD2    C313353   4.044   4.425  15.987
  912MPD2    C413354   4.098   4.440  15.854
  912MPD2    C513355   4.090   4.568  15.801
  912MPD2     H13356   3.953   4.513  16.158
  912MPD2    H113357   4.142   4.360  15.796
  912MPD2    H213358   4.018   4.768  15.822
  912MPD2    H313359   4.124   4.578  15.699
  912MPD2     N13360   4.057   4.307  16.066
  912MPD2    H513361   4.028   4.301  16.163
  912MPD2    N113362   3.963   4.788  16.068
  912MPD2    H713363   3.982   0.071  16.020
  913MPD2     C13364   0.140   1.037  10.975
  913MPD2    C113365   0.200   1.141  11.048
  913MPD2    C213366   0.187   1.273  11.005
  913MPD2    C313367   0.121   1.298  10.884
  913MPD2    C413368   0.069   1.188  10.817
  913MPD2    C513369   0.087   1.062  10.855
  913MPD2     H13370   0.233   1.354  11.061
  913MPD2    H113371   0.020   1.208  10.722
  913MPD2    H213372   0.140   0.932  11.001
  913MPD2    H313373   0.036   0.982  10.802
  913MPD2     N13374   0.114   1.417  10.810
  913MPD2    H513375   0.083   1.403  10.715
  913MPD2    N113376   0.284   1.104  11.156
  913MPD2    H713377   0.301   1.005  11.147
  914MPD2     C13378   2.861   1.368  12.289
  914MPD2    C113379   2.833   1.479  12.370
  914MPD2    C213380   2.855   1.456  12.503
  914MPD2    C313381   2.857   1.327  12.561
  914MPD2    C413382   2.872   1.217  12.476
  914MPD2    C513383   2.882   1.245  12.341
  914MPD2     H13384   2.845   1.532  12.579
  914MPD2    H113385   2.894   1.116  12.508
  914MPD2    H213386   2.862   1.378  12.181
  914MPD2    H313387   2.912   1.166  12.273
  914MPD2     N13388   2.849   1.310  12.701
  914MPD2    H513389   2.835   1.395  12.755
  914MPD2    N113390   2.783   1.602  12.319
  914MPD2    H713391   2.774   1.613  12.219
  915MPD2     C13392   1.016   1.141  15.739
  915MPD2    C113393   0.905   1.211  15.693
  915MPD2    C213394   0.811   1.256  15.782
  915MPD2    C313395   0.831   1.222  15.914
  915MPD2    C413396   0.944   1.152  15.953
  915MPD2    C513397   1.045   1.123  15.870
  915MPD2     H13398   0.712   1.292  15.758
  915MPD2    H113399   0.967   1.126  16.056
  915MPD2    H213400   1.086   1.092  15.672
  915MPD2    H313401   1.133   1.069  15.903
  915MPD2     N13402   0.723   1.248  16.008
  915MPD2    H513403   0.645   1.306  15.980
  915MPD2    N113404   0.894   1.216  15.547
  915MPD2    H713405   0.954   1.158  15.489
  916MPD2     C13406   3.657   4.273  16.042
  916MPD2    C113407   3.607   4.155  16.090
  916MPD2    C213408   3.639   4.035  16.027
  916MPD2    C313409   3.713   4.027  15.910
  916MPD2    C413410   3.749   4.148  15.855
  916MPD2    C513411   3.720   4.264  15.919
  916MPD2     H13412   3.623   3.936  16.068
  916MPD2    H113413   3.801   4.156  15.761
  916MPD2    H213414   3.636   4.369  16.089
  916MPD2    H313415   3.765   4.353  15.877
  916MPD2     N13416   3.752   3.904  15.853
  916MPD2    H513417   3.744   3.823  15.913
  916MPD2    N113418   3.520   4.164  16.200
  916MPD2    H713419   3.503   4.258  16.234
  917MPD2     C13420   3.917   1.877  11.529
  917MPD2    C113421   3.976   1.939  11.640
  917MPD2    C213422   4.058   2.051  11.621
  917MPD2    C313423   4.064   2.105  11.493
  917MPD2    C413424   4.000   2.048  11.382
  917MPD2    C513425   3.931   1.935  11.406
  917MPD2     H13426   4.097   2.110  11.703
  917MPD2    H113427   4.011   2.088  11.282
  917MPD2    H213428   3.855   1.789  11.541
  917MPD2    H313429   3.885   1.879  11.325
  917MPD2     N13430   4.146   2.229  11.465
  917MPD2    H513431   4.152   2.268  11.371
  917MPD2    N113432   3.927   1.903  11.766
  917MPD2    H713433   3.859   1.828  11.771
  918MPD2     C13434   3.995   2.429  12.599
  918MPD2    C113435   4.100   2.379  12.520
  918MPD2    C213436   4.057   2.278  12.434
  918MPD2    C313437   3.923   2.240  12.411
  918MPD2    C413438   3.834   2.283  12.506
  918MPD2    C513439   3.864   2.378  12.595
  918MPD2     H13440   4.127   2.226  12.370
  918MPD2    H113441   3.731   2.250  12.511
  918MPD2    H213442   4.024   2.491  12.683
  918MPD2    H313443   3.784   2.420  12.655
  918MPD2     N13444   3.902   2.134  12.319
  918MPD2    H513445   3.981   2.100  12.264
  918MPD2    N113446   4.232   2.424  12.525
  918MPD2    H713447   4.290   2.372  12.461
  919MPD2     C13448   4.750   0.812  12.170
  919MPD2    C113449   4.696   0.706  12.095
  919MPD2    C213450   4.711   0.705  11.962
  919MPD2    C313451   4.774   0.813  11.892
  919MPD2    C413452   0.003   0.922  11.969
  919MPD2    C513453   4.805   0.913  12.104
  919MPD2     H13454   4.672   0.623  11.902
  919MPD2    H113455   0.047   1.009  11.921
  919MPD2    H213456   4.756   0.824  12.278
  919MPD2    H313457   0.049   0.988  12.165
  919MPD2     N13458   4.795   0.811  11.755
  919MPD2    H513459   0.007   0.903  11.714
  919MPD2    N113460   4.623   0.604  12.153
  919MPD2    H713461   4.589   0.529  12.093
  920MPD2     C13462   4.551   1.428  11.052
  920MPD2    C113463   4.451   1.333  11.038
  920MPD2    C213464   4.477   1.202  11.087
  920MPD2    C313465   4.601   1.176  11.150
  920MPD2    C413466   4.692   1.277  11.160
  920MPD2    C513467   4.668   1.399  11.107
  920MPD2     H13468   4.397   1.128  11.087
  920MPD2    H113469   4.794   1.260  11.194
  920MPD2    H213470   4.534   1.531  11.022
  920MPD2    H313471   4.745   1.473  11.088
  920MPD2     N13472   4.622   1.044  11.208
  920MPD2    H513473   4.554   0.973  11.183
  920MPD2    N113474   4.325   1.367  10.977
  920MPD2    H713475   4.248   1.301  10.982
  921MPD2     C13476   0.427   0.001  16.875
  921MPD2    C113477   0.419   4.704  16.780
  921MPD2    C213478   0.317   4.606  16.799
  921MPD2    C313479   0.216   4.618  16.893
  921MPD2    C413480   0.216   4.738  16.962
  921MPD2    C513481   0.320   0.019  16.956
  921MPD2     H13482   0.308   4.520  16.733
  921MPD2    H113483   0.138   4.763  17.032
  921MPD2    H213484   0.504   0.078  16.883
  921MPD2    H313485   0.324   0.103  17.023
  921MPD2     N13486   0.109   4.523  16.896
  921MPD2    H513487   0.024   4.558  16.937
  921MPD2    N113488   0.520   4.693  16.688
  921MPD2    H713489   0.598   4.757  16.696
  922MPD2     C13490   1.306   2.677  17.446
  922MPD2    C113491   1.178   2.689  17.489
  922MPD2    C213492   1.115   2.580  17.534
  922MPD2    C313493   1.166   2.447  17.534
  922MPD2    C413494   1.288   2.434  17.469
  922MPD2    C513495   1.357   2.545  17.430
  922MPD2     H13496   1.017   2.594  17.579
  922MPD2    H113497   1.342   2.340  17.457
  922MPD2    H213498   1.364   2.756  17.402
  922MPD2    H313499   1.453   2.534  17.381
  922MPD2     N13500   1.093   2.339  17.586
  922MPD2    H513501   1.000   2.353  17.626
  922MPD2    N113502   1.103   2.814  17.507
  922MPD2    H713503   1.023   2.808  17.568
  923MPD2     C13504   2.430   4.781   9.238
  923MPD2    C113505   2.432   0.064   9.342
  923MPD2    C213506   2.515   0.045   9.453
  923MPD2    C313507   2.608   4.751   9.447
  923MPD2    C413508   2.608   4.667   9.335
  923MPD2    C513509   2.529   4.692   9.227
  923MPD2     H13510   2.507   0.116   9.535
  923MPD2    H113511   2.690   4.597   9.323
  923MPD2    H213512   2.360   4.796   9.156
  923MPD2    H313513   2.536   4.619   9.147
  923MPD2     N13514   2.700   4.718   9.551
  923MPD2    H513515   2.774   4.652   9.531
  923MPD2    N113516   2.346   0.175   9.342
  923MPD2    H713517   2.273   0.175   9.271
  924MPD2     C13518   2.310   2.673  16.152
  924MPD2    C113519   2.403   2.722  16.241
  924MPD2    C213520   2.471   2.833  16.203
  924MPD2    C313521   2.437   2.919  16.097
  924MPD2    C413522   2.341   2.872  16.014
  924MPD2    C513523   2.280   2.750  16.039
  924MPD2     H13524   2.542   2.877  16.273
  924MPD2    H113525   2.315   2.919  15.920
  924MPD2    H213526   2.250   2.587  16.182
  924MPD2    H313527   2.194   2.721  15.981
  924MPD2     N13528   2.502   3.044  16.065
  924MPD2    H513529   2.441   3.101  16.007
  924MPD2    N113530   2.402   2.664  16.373
  924MPD2    H713531   2.333   2.595  16.398
  925MPD2     C13532   1.428   0.691  15.094
  925MPD2    C113533   1.307   0.739  15.048
  925MPD2    C213534   1.218   0.793  15.139
  925MPD2    C313535   1.244   0.778  15.274
  925MPD2    C413536   1.364   0.727  15.316
  925MPD2    C513537   1.464   0.697  15.228
  925MPD2     H13538   1.125   0.831  15.097
  925MPD2    H113539   1.381   0.731  15.423
  925MPD2    H213540   1.497   0.643  15.026
  925MPD2    H313541   1.561   0.660  15.260
  925MPD2     N13542   1.141   0.772  15.367
  925MPD2    H513543   1.161   0.727  15.456
  925MPD2    N113544   1.258   0.737  14.919
  925MPD2    H713545   1.168   0.778  14.898
  926MPD2     C13546   0.255   3.882  13.450
  926MPD2    C113547   0.151   3.965  13.404
  926MPD2    C213548   0.181   4.060  13.312
  926MPD2    C313549   0.312   4.084  13.266
  926MPD2    C413550   0.411   4.017  13.326
  926MPD2    C513551   0.382   3.918  13.414
  926MPD2     H13552   0.100   4.114  13.263
  926MPD2    H113553   0.516   4.032  13.305
  926MPD2    H213554   0.243   3.791  13.508
  926MPD2    H313555   0.464   3.865  13.459
  926MPD2     N13556   0.344   4.174  13.162
  926MPD2    H513557   0.442   4.171  13.135
  926MPD2    N113558   0.015   3.952  13.449
  926MPD2    H713559   4.749   4.023  13.433
  927MPD2     C13560   4.319   1.407  18.017
  927MPD2    C113561   4.437   1.469  18.044
  927MPD2    C213562   4.539   1.453  17.956
  927MPD2    C313563   4.525   1.381  17.839
  927MPD2    C413564   4.404   1.313  17.817
  927MPD2    C513565   4.302   1.331  17.909
  927MPD2     H13566   4.634   1.501  17.980
  927MPD2    H113567   4.404   1.235  17.742
  927MPD2    H213568   4.236   1.419  18.086
  927MPD2    H313569   4.208   1.277  17.901
  927MPD2     N13570   4.632   1.372  17.746
  927MPD2    H513571   4.713   1.430  17.764
  927MPD2    N113572   4.450   1.535  18.162
  927MPD2    H713573   4.370   1.527  18.224
  928MPD2     C13574   2.097   4.115  18.771
  928MPD2    C113575   2.174   4.231  18.778
  928MPD2    C213576   2.294   4.245  18.702
  928MPD2    C313577   2.317   4.154  18.605
  928MPD2    C413578   2.237   4.042  18.594
  928MPD2    C513579   2.125   4.025  18.675
  928MPD2     H13580   2.356   4.333  18.718
  928MPD2    H113581   2.247   3.971  18.513
  928MPD2    H213582   2.008   4.111  18.833
  928MPD2    H313583   2.064   3.936  18.668
  928MPD2     N13584   2.417   4.167  18.500
  928MPD2    H513585   2.432   4.092  18.433
  928MPD2    N113586   2.122   4.336  18.866
  928MPD2    H713587   2.049   4.315  18.934
  929MPD2     C13588   2.155   0.117  10.022
  929MPD2    C113589   2.088   0.052  10.119
  929MPD2    C213590   1.952   0.024  10.092
  929MPD2    C313591   1.879   0.082   9.984
  929MPD2    C413592   1.952   0.160   9.893
  929MPD2    C513593   2.087   0.170   9.917
  929MPD2     H13594   1.892   4.769  10.160
  929MPD2    H113595   1.907   0.205   9.805
  929MPD2    H213596   2.258   0.145  10.038
  929MPD2    H313597   2.152   0.220   9.846
  929MPD2     N13598   1.744   0.056   9.957
  929MPD2    H513599   1.703   0.074   9.866
  929MPD2    N113600   2.155   0.036  10.247
  929MPD2    H713601   2.254   0.055  10.255
  930MPD2     C13602   4.156   1.889  14.208
  930MPD2    C113603   4.280   1.902  14.148
  930MPD2    C213604   4.321   1.802  14.058
  930MPD2    C313605   4.233   1.708  14.012
  930MPD2    C413606   4.114   1.700  14.080
  930MPD2    C513607   4.076   1.793  14.175
  930MPD2     H13608   4.428   1.798  14.044
  930MPD2    H113609   4.043   1.622  14.053
  930MPD2    H213610   4.113   1.964  14.274
  930MPD2    H313611   3.975   1.790  14.214
  930MPD2     N13612   4.270   1.610  13.916
  930MPD2    H513613   4.211   1.528  13.927
  930MPD2    N113614   4.375   1.996  14.198
  930MPD2    H713615   4.351   2.046  14.283
  931MPD2     C13616   0.230   1.503  18.615
  931MPD2    C113617   0.101   1.514  18.664
  931MPD2    C213618   0.057   1.430  18.769
  931MPD2    C313619   0.152   1.338  18.819
  931MPD2    C413620   0.284   1.339  18.776
  931MPD2    C513621   0.325   1.425  18.678
  931MPD2     H13622   4.758   1.418  18.798
  931MPD2    H113623   0.355   1.269  18.818
  931MPD2    H213624   0.257   1.557  18.524
  931MPD2    H313625   0.424   1.419  18.633
  931MPD2     N13626   0.118   1.227  18.904
  931MPD2    H513627   0.200   1.176  18.934
  931MPD2    N113628   0.007   1.603  18.599
  931MPD2    H713629   0.049   1.652  18.520
  932MPD2     C13630   1.390   1.068  11.750
  932MPD2    C113631   1.499   1.042  11.667
  932MPD2    C213632   1.565   0.920  11.670
  932MPD2    C313633   1.521   0.813  11.754
  932MPD2    C413634   1.413   0.849  11.840
  932MPD2    C513635   1.347   0.966  11.837
  932MPD2     H13636   1.646   0.899  11.600
  932MPD2    H113637   1.380   0.772  11.908
  932MPD2    H213638   1.344   1.165  11.767
  932MPD2    H313639   1.267   0.985  11.908
  932MPD2     N13640   1.575   0.682  11.758
  932MPD2    H513641   1.535   0.628  11.834
  932MPD2    N113642   1.546   1.140  11.575
  932MPD2    H713643   1.622   1.109  11.515
  933MPD2     C13644   1.894   0.328  19.223
  933MPD2    C113645   1.928   0.272  19.104
  933MPD2    C213646   1.902   0.341  18.986
  933MPD2    C313647   1.844   0.460  18.992
  933MPD2    C413648   1.797   0.514  19.114
  933MPD2    C513649   1.826   0.441  19.230
  933MPD2     H13650   1.945   0.312  18.891
  933MPD2    H113651   1.753   0.613  19.112
  933MPD2    H213652   1.935   0.286  19.314
  933MPD2    H313653   1.808   0.492  19.324
  933MPD2     N13654   1.843   0.526  18.868
  933MPD2    H513655   1.870   0.468  18.789
  933MPD2    N113656   2.000   0.154  19.112
  933MPD2    H713657   2.013   0.098  19.196
  934MPD2     C13658   3.186   2.773  19.718
  934MPD2    C113659   3.273   2.673  19.771
  934MPD2    C213660   3.249   2.543  19.741
  934MPD2    C313661   3.136   2.500  19.678
  934MPD2    C413662   3.040   2.594  19.652
  934MPD2    C513663   3.067   2.729  19.674
  934MPD2     H13664   3.317   2.465  19.774
  934MPD2    H113665   2.947   2.561  19.607
  934MPD2    H213666   3.211   2.878  19.728
  934MPD2    H313667   2.993   2.808  19.667
  934MPD2     N13668   3.106   2.365  19.641
  934MPD2    H513669   3.010   2.346  19.614
  934MPD2    N113670   3.393   2.706  19.837
  934MPD2    H713671   3.447   2.625  19.868
  935MPD2     C13672   3.746   1.642  19.402
  935MPD2    C113673   3.626   1.606  19.337
  935MPD2    C213674   3.517   1.682  19.379
  935MPD2    C313675   3.519   1.779  19.475
  935MPD2    C413676   3.635   1.803  19.540
  935MPD2    C513677   3.744   1.733  19.502
  935MPD2     H13678   3.428   1.673  19.317
  935MPD2    H113679   3.639   1.874  19.621
  935MPD2    H213680   3.834   1.582  19.383
  935MPD2    H313681   3.836   1.774  19.541
  935MPD2     N13682   3.407   1.849  19.510
  935MPD2    H513683   3.420   1.907  19.593
  935MPD2    N113684   3.622   1.510  19.235
  935MPD2    H713685   3.531   1.474  19.207
  936MPD2     C13686   2.104   3.417  12.712
  936MPD2    C113687   2.205   3.493  12.762
  936MPD2    C213688   2.231   3.614  12.693
  936MPD2    C313689   2.157   3.653  12.581
  936MPD2    C413690   2.058   3.576  12.536
  936MPD2    C513691   2.031   3.455  12.598
  936MPD2     H13692   2.305   3.682  12.733
  936MPD2    H113693   1.997   3.602  12.450
  936MPD2    H213694   2.068   3.327  12.760
  936MPD2    H313695   1.947   3.390  12.576
  936MPD2     N13696   2.175   3.777  12.523
  936MPD2    H513697   2.099   3.803  12.461
  936MPD2    N113698   2.277   3.467  12.881
  936MPD2    H713699   2.335   3.545  12.910
  937MPD2     C13700   4.699   4.721  12.054
  937MPD2    C113701   4.726   0.052  12.068
  937MPD2    C213702   0.037   0.101  12.010
  937MPD2    C313703   0.116   0.026  11.924
  937MPD2    C413704   0.079   4.703  11.895
  937MPD2    C513705   4.777   4.650  11.967
  937MPD2     H13706   0.055   0.207  12.019
  937MPD2    H113707   0.131   4.624  11.844
  937MPD2    H213708   4.609   4.680  12.097
  937MPD2    H313709   4.747   4.551  11.936
  937MPD2     N13710   0.230   0.096  11.871
  937MPD2    H513711   0.250   0.188  11.909
  937MPD2    N113712   4.652   0.146  12.135
  937MPD2    H713713   4.669   0.243  12.114
  938MPD2     C13714   2.754   1.045  18.696
  938MPD2    C113715   2.667   1.139  18.738
  938MPD2    C213716   2.616   1.141  18.862
  938MPD2    C313717   2.639   1.034  18.951
  938MPD2    C413718   2.727   0.933  18.906
  938MPD2    C513719   2.791   0.942  18.784
  938MPD2     H13720   2.552   1.224  18.888
  938MPD2    H113721   2.761   0.853  18.971
  938MPD2    H213722   2.795   1.056  18.597
  938MPD2    H313723   2.855   0.865  18.743
  938MPD2     N13724   2.596   1.027  19.089
  938MPD2    H513725   2.636   0.947  19.138
  938MPD2    N113726   2.652   1.262  18.677
  938MPD2    H713727   2.626   1.346  18.728
  939MPD2     C13728   3.714   2.154  18.816
  939MPD2    C113729   3.692   2.283  18.773
  939MPD2    C213730   3.753   2.328  18.656
  939MPD2    C313731   3.823   2.233  18.573
  939MPD2    C413732   3.836   2.103  18.616
  939MPD2    C513733   3.784   2.064  18.733
  939MPD2     H13734   3.746   2.432  18.629
  939MPD2    H113735   3.877   2.028  18.551
  939MPD2    H213736   3.677   2.119  18.911
  939MPD2    H313737   3.794   1.964  18.774
  939MPD2     N13738   3.880   2.280  18.453
  939MPD2    H513739   3.875   2.376  18.422
  939MPD2    N113740   3.615   2.370  18.855
  939MPD2    H713741   3.590   2.333  18.947
  940MPD2     C13742   2.845   3.986  13.465
  940MPD2    C113743   2.784   3.863  13.464
  940MPD2    C213744   2.810   3.775  13.362
  940MPD2    C313745   2.883   3.815  13.253
  940MPD2    C413746   2.936   3.948  13.252
  940MPD2    C513747   2.914   4.032  13.356
  940MPD2     H13748   2.754   3.682  13.352
  940MPD2    H113749   2.993   3.985  13.167
  940MPD2    H213750   2.831   4.065  13.538
  940MPD2    H313751   2.955   4.132  13.361
  940MPD2     N13752   2.906   3.738  13.144
  940MPD2    H513753   2.975   3.771  13.078
  940MPD2    N113754   2.704   3.831  13.576
  940MPD2    H713755   2.662   3.739  13.566
  941MPD2     C13756   1.619   3.093  10.121
  941MPD2    C113757   1.736   3.064  10.185
  941MPD2    C213758   1.757   2.937  10.228
  941MPD2    C313759   1.669   2.836  10.206
  941MPD2    C413760   1.551   2.868  10.145
  941MPD2    C513761   1.526   2.994  10.098
  941MPD2     H13762   1.847   2.919  10.286
  941MPD2    H113763   1.474   2.794  10.126
  941MPD2    H213764   1.593   3.190  10.080
  941MPD2    H313765   1.433   3.018  10.047
  941MPD2     N13766   1.687   2.707  10.268
  941MPD2    H513767   1.622   2.634  10.240
  941MPD2    N113768   1.834   3.168  10.215
  941MPD2    H713769   1.910   3.135  10.272
  942MPD2     C13770   0.870   0.139   9.399
  942MPD2    C113771   0.920   0.012   9.378
  942MPD2    C213772   1.044   4.804   9.310
  942MPD2    C313773   1.123   0.110   9.279
  942MPD2    C413774   1.077   0.230   9.316
  942MPD2    C513775   0.946   0.247   9.361
  942MPD2     H13776   1.091   4.706   9.313
  942MPD2    H113777   1.147   0.312   9.306
  942MPD2    H213778   0.780   0.154   9.458
  942MPD2    H313779   0.936   0.347   9.403
  942MPD2     N13780   1.256   0.092   9.239
  942MPD2    H513781   1.321   0.167   9.260
  942MPD2    N113782   0.851   4.691   9.403
  942MPD2    H713783   0.896   4.606   9.372
  943MPD2     C13784   0.453   2.611  10.027
  943MPD2    C113785   0.580   2.673  10.042
  943MPD2    C213786   0.600   2.794   9.975
  943MPD2    C313787   0.494   2.856   9.913
  943MPD2    C413788   0.377   2.788   9.895
  943MPD2    C513789   0.358   2.666   9.953
  943MPD2     H13790   0.694   2.846   9.989
  943MPD2    H113791   0.298   2.833   9.835
  943MPD2    H213792   0.442   2.515  10.076
  943MPD2    H313793   0.264   2.613   9.937
  943MPD2     N13794   0.502   2.989   9.857
  943MPD2    H513795   0.430   3.010   9.789
  943MPD2    N113796   0.674   2.605  10.129
  943MPD2    H713797   0.634   2.540  10.195
  944MPD2     C13798   0.044   1.555  11.350
  944MPD2    C113799   0.137   1.616  11.423
  944MPD2    C213800   0.104   1.743  11.472
  944MPD2    C313801   4.795   1.811  11.440
  944MPD2    C413802   4.702   1.741  11.357
  944MPD2    C513803   4.730   1.617  11.323
  944MPD2     H13804   0.175   1.795  11.536
  944MPD2    H113805   4.614   1.798  11.326
  944MPD2    H213806   0.063   1.456  11.309
  944MPD2    H313807   4.644   1.571  11.275
  944MPD2     N13808   4.783   1.947  11.488
  944MPD2    H513809   0.056   1.988  11.540
  944MPD2    N113810   0.260   1.554  11.444
  944MPD2    H713811   0.288   1.475  11.387
  945TCq1    O113812   3.264   2.431  14.689
  945TCq1    C113813   3.354   2.339  14.654
  945TCq1    O213814   3.348   2.278  14.548
  945TCq1    C213815   3.487   2.371  14.694
  945TCq1    C313816   3.586   2.282  14.652
  945TCq1    C413817   3.721   2.305  14.684
  945TCq1    C513818   3.762   2.422  14.741
  945TCq1    C613819   3.666   2.508  14.773
  945TCq1    C713820   3.524   2.495  14.747
  945TCq1    C813821   3.708   2.628  14.851
  945TCq1    O413822   3.799   2.611  14.931
  945TCq1    C913823   3.826   2.200  14.691
  945TCq1    O513824   3.941   2.228  14.656
  945TCq1    O613825   3.773   2.077  14.683
  945TCq1    H113826   3.290   2.462  14.778
  945TCq1    H213827   3.552   2.192  14.604
  945TCq1    H313828   3.865   2.449  14.760
  945TCq1    H413829   3.442   2.562  14.773
  946MPD2     C13830   3.649   3.116  15.012
  946MPD2    C113831   3.572   3.097  14.904
  946MPD2    C213832   3.554   2.975  14.845
  946MPD2    C313833   3.635   2.866  14.889
  946MPD2    C413834   3.716   2.891  15.000
  946MPD2    C513835   3.723   3.014  15.056
  946MPD2     H13836   3.474   2.967  14.772
  946MPD2    H113837   3.787   2.820  15.041
  946MPD2    H213838   3.656   3.214  15.059
  946MPD2    H313839   3.793   3.020  15.139
  946MPD2     N13840   3.630   2.739  14.823
  946MPD2    H513841   3.561   2.740  14.748
  946MPD2    N113842   3.520   3.211  14.839
  946MPD2    H713843   3.509   3.292  14.899
  947TMC2    C113844   3.454   3.361  14.679
  947TMC2    C213845   3.547   3.452  14.719
  947TMC2    C313846   3.533   3.579  14.661
  947TMC2    C413847   3.360   3.374  14.574
  947TMC2    C513848   3.363   3.497  14.517
  947TMC2    C613849   3.440   3.601  14.563
  947TMC2     C13850   3.490   3.222  14.705
  947TMC2     O13851   3.492   3.142  14.613
  947TMC2     H13852   3.609   3.427  14.804
  947TMC2    H113853   3.297   3.291  14.546
  947TMC2    H213854   3.455   3.690  14.503
  947TMC2    C713855   3.268   3.508  14.415
  947TMC2    C813856   3.614   3.696  14.691
  947TMC2    O113857   3.159   3.459  14.448
  947TMC2    O213858   3.573   3.808  14.678
  947TMC2    O513859   3.728   3.661  14.752
  947TMC2    H513860   3.759   3.578  14.709
  948MPD2     C13861   2.814   4.505  14.024
  948MPD2    C113862   2.822   4.433  13.907
  948MPD2    C213863   2.946   4.386  13.872
  948MPD2    C313864   3.055   4.429  13.943
  948MPD2    C413865   3.047   4.519  14.047
  948MPD2    C513866   2.925   4.554  14.092
  948MPD2     H13867   2.953   4.315  13.790
  948MPD2    H113868   3.127   4.556  14.111
  948MPD2    H213869   2.716   4.528  14.064
  948MPD2    H313870   2.918   4.627  14.171
  948MPD2     N13871   3.176   4.377  13.895
  948MPD2    H513872   3.182   4.302  13.827
  948MPD2    N113873   2.709   4.405  13.835
  948MPD2    H713874   2.620   4.415  13.883
  949TCq2    C113875   3.298   4.415  13.939
  949TCq2    O213876   3.341   4.524  13.980
  949TCq2    C213877   3.392   4.314  13.922
  949TCq2    C313878   3.524   4.354  13.896
  949TCq2    C413879   3.617   4.257  13.886
  949TCq2    C513880   3.592   4.124  13.914
  949TCq2    C613881   3.459   4.092  13.922
  949TCq2    C713882   3.352   4.183  13.925
  949TCq2    C813883   3.437   3.963  13.977
  949TCq2    O413884   3.534   3.904  14.024
  949TCq2    C913885   3.760   4.292  13.877
  949TCq2    O513886   3.855   4.230  13.921
  949TCq2    O613887   3.771   4.375  13.771
  949TCq2    H213888   3.551   4.457  13.874
  949TCq2    H313889   3.661   4.042  13.899
  949TCq2    H413890   3.250   4.152  13.945
  950MPD1     C13891   1.700   0.969  13.526
  950MPD1    C113892   1.831   0.940  13.484
  950MPD1    C213893   1.877   0.816  13.468
  950MPD1    C313894   1.792   0.710  13.484
  950MPD1    C413895   1.664   0.736  13.533
  950MPD1    C513896   1.624   0.863  13.561
  950MPD1     H13897   1.979   0.805  13.435
  950MPD1    H113898   1.593   0.663  13.572
  950MPD1    H213899   1.671   1.073  13.531
  950MPD1    H313900   1.524   0.882  13.599
  950MPD1     N13901   1.832   0.576  13.466
  950MPD1    H513902   1.765   0.507  13.497
  950MPD1    N113903   1.915   1.048  13.462
  950MPD1    H613904   1.857   1.124  13.428
  950MPD1    H713905   1.985   1.022  13.393
  951MPD2     C13906   1.904   4.718  13.551
  951MPD2    C113907   1.996   4.732  13.650
  951MPD2    C213908   2.070   4.622  13.691
  951MPD2    C313909   2.062   4.503  13.619
  951MPD2    C413910   1.970   4.491  13.509
  951MPD2    C513911   1.896   4.601  13.482
  951MPD2     H13912   2.137   4.630  13.777
  951MPD2    H113913   1.957   4.395  13.460
  951MPD2    H213914   1.839   4.799  13.521
  951MPD2    H313915   1.836   4.600  13.392
  951MPD2     N13916   2.144   4.394  13.640
  951MPD2    H513917   2.139   4.310  13.583
  951MPD2    N113918   2.018   0.043  13.722
  951MPD2    H713919   2.063   0.035  13.813
  952TMC3    C113920   2.357   4.284  13.670
  952TMC3    C213921   2.480   4.304  13.730
  952TMC3    C313922   2.587   4.323  13.648
  952TMC3    C413923   2.347   4.267  13.535
  952TMC3    C513924   2.462   4.286  13.454
  952TMC3    C613925   2.579   4.306  13.513
  952TMC3     C13926   2.249   4.377  13.726
  952TMC3     O13927   2.289   4.455  13.815
  952TMC3     H13928   2.487   4.326  13.836
  952TMC3    H113929   2.255   4.249  13.481
  952TMC3    H213930   2.661   4.316  13.443
  952TMC3    C713931   2.434   4.390  13.361
  952TMC3    C813932   2.712   4.363  13.704
  952TMC3    O113933   2.518   4.477  13.343
  952TMC3    O213934   2.797   4.363  13.620
  953TMC3    C113935   1.940   0.389  13.399
  953TMC3    C213936   2.017   0.339  13.307
  953TMC3    C313937   2.076   0.222  13.342
  953TMC3    C413938   1.935   0.339  13.522
  953TMC3    C513939   1.988   0.215  13.550
  953TMC3    C613940   2.075   0.157  13.463
  953TMC3     C13941   1.935   0.533  13.383
  953TMC3     O13942   2.016   0.593  13.315
  953TMC3     H13943   2.000   0.385  13.211
  953TMC3    H113944   1.870   0.381  13.598
  953TMC3    H213945   2.133   0.068  13.485
  953TMC3    C713946   1.975   0.170  13.689
  953TMC3    C813947   2.114   0.148  13.220
  953TMC3    O113948   1.975   0.261  13.771
  953TMC3    O213949   2.059   0.169  13.113
  954MPD2     C13950   2.141   4.455  13.139
  954MPD2    C113951   2.242   4.485  13.229
  954MPD2    C213952   2.266   4.618  13.253
  954MPD2    C313953   2.185   4.715  13.194
  954MPD2    C413954   2.081   4.685  13.109
  954MPD2    C513955   2.063   4.556  13.082
  954MPD2     H13956   2.353   4.640  13.314
  954MPD2    H113957   2.025   4.762  13.057
  954MPD2    H213958   2.124   4.354  13.104
  954MPD2    H313959   2.009   4.528  12.993
  954MPD2     N13960   2.195   0.038  13.253
  954MPD2    H513961   2.263   0.042  13.328
  954MPD2    N113962   2.310   4.376  13.302
  954MPD2    H713963   2.254   4.291  13.301
  955MPD2     C13964   3.100   3.636  14.208
  955MPD2    C113965   3.228   3.676  14.238
  955MPD2    C213966   3.294   3.770  14.160
  955MPD2    C313967   3.240   3.827  14.049
  955MPD2    C413968   3.114   3.790  14.026
  955MPD2    C513969   3.045   3.694  14.096
  955MPD2     H13970   3.392   3.796  14.199
  955MPD2    H113971   3.059   3.828  13.941
  955MPD2    H213972   3.048   3.552  14.252
  955MPD2    H313973   2.945   3.666  14.065
  955MPD2     N13974   3.303   3.926  13.973
  955MPD2    H513975   3.232   3.985  13.932
  955MPD2    N113976   3.308   3.610  14.332
  955MPD2    H713977   3.404   3.633  14.354
  956MPD1     C13978   0.435   4.762  17.438
  956MPD1    C113979   0.511   0.067  17.470
  956MPD1    C213980   0.583   0.129  17.372
  956MPD1    C313981   0.601   0.061  17.257
  956MPD1    C413982   0.536   4.747  17.227
  956MPD1    C513983   0.449   4.697  17.321
  956MPD1     H13984   0.624   0.228  17.386
  956MPD1    H113985   0.555   4.702  17.130
  956MPD1    H213986   0.383   4.712  17.519
  956MPD1    H313987   0.388   4.611  17.297
  956MPD1     N13988   0.689   0.099  17.161
  956MPD1    H513989   0.704   0.027  17.091
  956MPD1    N113990   0.492   0.132  17.592
  956MPD1    H613991   0.468   0.070  17.670
  956MPD1    H713992   0.573   0.183  17.625
  957MPD1     C13993   1.569   0.552  17.221
  957MPD1    C113994   1.451   0.569  17.288
  957MPD1    C213995   1.339   0.510  17.226
  957MPD1    C313996   1.349   0.418  17.125
  957MPD1    C413997   1.472   0.390  17.075
  957MPD1    C513998   1.576   0.463  17.118
  957MPD1     H13999   1.238   0.534  17.257
  957MPD1    H114000   1.493   0.314  17.001
  957MPD1    H214001   1.656   0.610  17.249
  957MPD1    H314002   1.669   0.446  17.064
  957MPD1     N14003   1.226   0.360  17.090
  957MPD1    H514004   1.143   0.403  17.131
  957MPD1    N114005   1.436   0.674  17.381
  957MPD1    H614006   1.514   0.687  17.445
  957MPD1    H714007   1.350   0.668  17.436
  958TMC3    C114008   1.065   0.253  16.962
  958TMC3    C214009   1.025   0.221  16.838
  958TMC3    C314010   0.893   0.195  16.820
  958TMC3    C414011   0.981   0.254  17.068
  958TMC3    C514012   0.854   0.206  17.046
  958TMC3    C614013   0.803   0.184  16.922
  958TMC3     C14014   1.205   0.282  16.979
  958TMC3     O14015   1.278   0.259  16.879
  958TMC3     H14016   1.092   0.177  16.765
  958TMC3    H114017   1.012   0.266  17.171
  958TMC3    H214018   0.695   0.178  16.924
  958TMC3    C714019   0.765   0.212  17.161
  958TMC3    C814020   0.836   0.173  16.687
  958TMC3    O114021   0.756   0.313  17.229
  958TMC3    O214022   0.719   0.134  16.688
  959MPD1     C14023   0.768   0.239  16.174
  959MPD1    C114024   0.892   0.296  16.208
  959MPD1    C214025   0.936   0.283  16.344
  959MPD1    C314026   0.861   0.222  16.446
  959MPD1    C414027   0.738   0.174  16.405
  959MPD1    C514028   0.702   0.175  16.274
  959MPD1     H14029   1.032   0.326  16.369
  959MPD1    H114030   0.664   0.128  16.470
  959MPD1    H214031   0.716   0.249  16.079
  959MPD1    H314032   0.607   0.129  16.252
  959MPD1     N14033   0.907   0.219  16.578
  959MPD1    H514034   1.001   0.257  16.591
  959MPD1    N114035   0.969   0.366  16.113
  959MPD1    H614036   1.065   0.380  16.143
  959MPD1    H714037   0.978   0.322  16.022
  960TCq1    O114038   2.528   4.737  12.135
  960TCq1    C114039   2.595   0.034  12.081
  960TCq1    O214040   2.685   0.094  12.140
  960TCq1    C214041   2.504   0.089  11.985
  960TCq1    C314042   2.459   0.007  11.886
  960TCq1    C414043   2.382   0.065  11.790
  960TCq1    C514044   2.346   0.194  11.779
  960TCq1    C614045   2.417   0.277  11.863
  960TCq1    C714046   2.482   0.229  11.975
  960TCq1    C814047   2.349   0.405  11.890
  960TCq1    O414048   2.351   0.449  12.005
  960TCq1    C914049   2.329   4.779  11.685
  960TCq1    O514050   2.210   4.783  11.653
  960TCq1    O614051   2.437   4.758  11.605
  960TCq1    H114052   2.439   4.721  12.096
  960TCq1    H214053   2.479   4.706  11.879
  960TCq1    H314054   2.271   0.212  11.704
  960TCq1    H414055   2.520   0.289  12.058
  961MPD1     C14056   1.990   0.748  11.720
  961MPD1    C114057   2.030   0.661  11.619
  961MPD1    C214058   2.132   0.568  11.637
  961MPD1    C314059   2.191   0.554  11.762
  961MPD1    C414060   2.135   0.620  11.871
  961MPD1    C514061   2.044   0.719  11.847
  961MPD1     H14062   2.174   0.514  11.553
  961MPD1    H114063   2.178   0.609  11.969
  961MPD1    H214064   1.918   0.827  11.706
  961MPD1    H314065   2.000   0.767  11.934
  961MPD1     N14066   2.295   0.457  11.768
  961MPD1    H514067   2.317   0.404  11.684
  961MPD1    N114068   1.985   0.682  11.489
  961MPD1    H614069   1.997   0.598  11.433
  961MPD1    H714070   1.887   0.706  11.476
  962TCq1    O114071   1.000   1.026  19.256
  962TCq1    C114072   1.064   1.139  19.265
  962TCq1    O214073   1.145   1.163  19.353
  962TCq1    C214074   0.950   1.229  19.255
  962TCq1    C314075   0.914   1.276  19.130
  962TCq1    C414076   0.818   1.381  19.142
  962TCq1    C514077   0.764   1.432  19.259
  962TCq1    C614078   0.791   1.364  19.374
  962TCq1    C714079   0.885   1.262  19.374
  962TCq1    C814080   0.672   1.341  19.455
  962TCq1    O414081   0.572   1.399  19.422
  962TCq1    C914082   0.754   1.427  19.015
  962TCq1    O514083   0.781   1.379  18.909
  962TCq1    O614084   0.736   1.558  19.042
  962TCq1    H114085   0.941   1.009  19.180
  962TCq1    H214086   0.961   1.253  19.035
  962TCq1    H314087   0.681   1.501  19.266
  962TCq1    H414088   0.924   1.232  19.470
  963MPD1     C14089   0.448   1.138  19.872
  963MPD1    C114090   0.570   1.074  19.859
  963MPD1    C214091   0.660   1.124  19.759
  963MPD1    C314092   0.611   1.208  19.661
  963MPD1    C414093   0.478   1.246  19.666
  963MPD1    C514094   0.400   1.219  19.774
  963MPD1     H14095   0.764   1.094  19.763
  963MPD1    H114096   0.434   1.311  19.591
  963MPD1    H214097   0.381   1.122  19.956
  963MPD1    H314098   0.297   1.252  19.771
  963MPD1     N14099   0.697   1.242  19.555
  963MPD1    H514100   0.795   1.214  19.561
  963MPD1    N114101   0.618   0.995  19.967
  963MPD1    H614102   0.537   0.942  19.999
  963MPD1    H714103   0.685   0.933  19.922
  964MPD1     C14104   3.373   4.548  12.403
  964MPD1    C114105   3.484   4.542  12.318
  964MPD1    C214106   3.565   4.650  12.302
  964MPD1    C314107   3.534   4.764  12.372
  964MPD1    C414108   3.424   4.777  12.453
  964MPD1    C514109   3.347   4.664  12.468
  964MPD1     H14110   3.654   4.659  12.241
  964MPD1    H114111   3.384   0.062  12.498
  964MPD1    H214112   3.306   4.466  12.424
  964MPD1    H314113   3.255   4.675  12.525
  964MPD1     N14114   3.623   0.073  12.353
  964MPD1    H514115   3.705   0.045  12.299
  964MPD1    N114116   3.502   4.431  12.233
  964MPD1    H614117   3.473   4.342  12.274
  964MPD1    H714118   3.602   4.423  12.211
  965MPD1     C14119   3.124   0.670  11.841
  965MPD1    C114120   3.073   0.615  11.723
  965MPD1    C214121   3.140   0.517  11.654
  965MPD1    C314122   3.267   0.479  11.683
  965MPD1    C414123   3.320   0.535  11.797
  965MPD1    C514124   3.249   0.628  11.876
  965MPD1     H14125   3.096   0.471  11.566
  965MPD1    H114126   3.414   0.499  11.837
  965MPD1    H214127   3.077   0.748  11.900
  965MPD1    H314128   3.296   0.640  11.973
  965MPD1     N14129   3.334   0.374  11.613
  965MPD1    H514130   3.421   0.333  11.647
  965MPD1    N114131   2.950   0.658  11.664
  965MPD1    H614132   2.900   0.718  11.729
  965MPD1    H714133   2.891   0.586  11.625
  966MPD1     C14134   3.013   4.669  10.817
  966MPD1    C114135   3.018   4.610  10.943
  966MPD1    C214136   3.107   4.671  11.031
  966MPD1    C314137   3.200   4.768  11.007
  966MPD1    C414138   3.202   0.009  10.877
  966MPD1    C514139   3.106   4.771  10.787
  966MPD1     H14140   3.115   4.625  11.128
  966MPD1    H114141   3.274   0.086  10.851
  966MPD1    H214142   2.941   4.627  10.747
  966MPD1    H314143   3.107   0.004  10.686
  966MPD1     N14144   3.274   0.006  11.118
  966MPD1    H514145   3.250   4.771  11.208
  966MPD1    N114146   2.928   4.512  10.987
  966MPD1    H614147   2.911   4.446  10.911
  966MPD1    H714148   2.966   4.453  11.060
  967MPD2     C14149   3.726   0.603  11.782
  967MPD2    C114150   3.822   0.620  11.882
  967MPD2    C214151   3.955   0.660  11.845
  967MPD2    C314152   3.980   0.686  11.715
  967MPD2    C414153   3.890   0.668  11.617
  967MPD2    C514154   3.764   0.627  11.651
  967MPD2     H14155   4.036   0.663  11.916
  967MPD2    H114156   3.914   0.673  11.511
  967MPD2    H214157   3.627   0.568  11.808
  967MPD2    H314158   3.694   0.617  11.569
  967MPD2     N14159   4.110   0.709  11.668
  967MPD2    H514160   4.124   0.702  11.568
  967MPD2    N114161   3.787   0.592  12.017
  967MPD2    H714162   3.859   0.615  12.084
  968TMC3    C114163   3.711   0.501  12.207
  968TMC3    C214164   3.630   0.409  12.265
  968TMC3    C314165   3.688   0.302  12.327
  968TMC3    C414166   3.847   0.489  12.235
  968TMC3    C514167   3.902   0.368  12.279
  968TMC3    C614168   3.825   0.271  12.328
  968TMC3     C14169   3.686   0.515  12.063
  968TMC3     O14170   3.604   0.444  12.008
  968TMC3     H14171   3.532   0.401  12.218
  968TMC3    H114172   3.913   0.570  12.207
  968TMC3    H214173   3.860   0.186  12.386
  968TMC3    C714174   4.035   0.348  12.222
  968TMC3    C814175   3.592   0.205  12.380
  968TMC3    O114176   4.105   0.443  12.196
  968TMC3    O214177   3.489   0.251  12.430
  969TMC3    C114178   3.389   0.213  11.449
  969TMC3    C214179   3.341   0.145  11.339
  969TMC3    C314180   3.433   0.128  11.235
  969TMC3    C414181   3.517   0.264  11.451
  969TMC3    C514182   3.602   0.238  11.347
  969TMC3    C614183   3.566   0.166  11.238
  969TMC3     C14184   3.284   0.297  11.509
  969TMC3     O14185   3.172   0.296  11.462
  969TMC3     H14186   3.239   0.112  11.328
  969TMC3    H114187   3.557   0.318  11.536
  969TMC3    H214188   3.633   0.153  11.154
  969TMC3    C714189   3.742   0.263  11.365
  969TMC3    C814190   3.384   0.085  11.104
  969TMC3    O114191   3.782   0.355  11.434
  969TMC3    O214192   3.451   0.137  11.013
  970MPD2     C14193   4.366   0.066  11.951
  970MPD2    C114194   4.348   0.201  11.947
  970MPD2    C214195   4.245   0.255  12.029
  970MPD2    C314196   4.176   0.170  12.114
  970MPD2    C414197   4.207   0.036  12.120
  970MPD2    C514198   4.292   4.788  12.026
  970MPD2     H14199   4.222   0.361  12.024
  970MPD2    H114200   4.157   4.768  12.182
  970MPD2    H214201   4.443   0.012  11.897
  970MPD2    H314202   4.324   4.685  12.021
  970MPD2     N14203   4.064   0.214  12.197
  970MPD2    H514204   3.991   0.149  12.222
  970MPD2    N114205   4.429   0.280  11.859
  970MPD2    H714206   4.481   0.242  11.781
  971TMC3    C114207   4.419   0.496  11.755
  971TMC3    C214208   4.390   0.433  11.639
  971TMC3    C314209   4.345   0.511  11.543
  971TMC3    C414210   4.403   0.628  11.773
  971TMC3    C514211   4.337   0.702  11.684
  971TMC3    C614212   4.317   0.645  11.562
  971TMC3     C14213   4.433   0.412  11.875
  971TMC3     O14214   4.432   0.473  11.977
  971TMC3     H14215   4.381   0.325  11.637
  971TMC3    H114216   4.407   0.669  11.873
  971TMC3    H214217   4.300   0.708  11.475
  971TMC3    C714218   4.212   0.753  11.743
  971TMC3    C814219   4.237   0.456  11.465
  971TMC3    O114220   4.204   0.813  11.853
  971TMC3    O214221   4.142   0.532  11.443
  972MPD2     C14222   4.231   0.122  11.313
  972MPD2    C114223   4.181   0.236  11.371
  972MPD2    C214224   4.044   0.248  11.375
  972MPD2    C314225   3.967   0.150  11.317
  972MPD2    C414226   4.014   0.042  11.253
  972MPD2    C514227   4.150   0.023  11.253
  972MPD2     H14228   4.012   0.339  11.424
  972MPD2    H114229   3.954   4.772  11.203
  972MPD2    H214230   4.338   0.107  11.309
  972MPD2    H314231   4.209   4.749  11.207
  972MPD2     N14232   3.821   0.166  11.311
  972MPD2    H514233   3.771   0.084  11.279
  972MPD2    N114234   4.269   0.328  11.429
  972MPD2    H714235   4.370   0.314  11.439
  973MPD1     C14236   3.874   4.135  16.978
  973MPD1    C114237   3.859   4.166  16.841
  973MPD1    C214238   3.776   4.084  16.770
  973MPD1    C314239   3.697   3.993  16.832
  973MPD1    C414240   3.700   3.970  16.970
  973MPD1    C514241   3.797   4.036  17.042
  973MPD1     H14242   3.781   4.090  16.661
  973MPD1    H114243   3.633   3.898  17.015
  973MPD1    H214244   3.953   4.168  17.045
  973MPD1    H314245   3.814   4.021  17.148
  973MPD1     N14246   3.611   3.906  16.762
  973MPD1    H514247   3.556   3.837  16.812
  973MPD1    N114248   3.951   4.249  16.776
  973MPD1    H614249   3.923   4.262  16.679
  973MPD1    H714250   3.962   4.338  16.824
  974MPD1     C14251   3.468   3.591  15.783
  974MPD1    C114252   3.480   3.720  15.834
  974MPD1    C214253   3.485   3.737  15.972
  974MPD1    C314254   3.503   3.631  16.061
  974MPD1    C414255   3.503   3.503  16.001
  974MPD1    C514256   3.470   3.487  15.871
  974MPD1     H14257   3.473   3.841  15.999
  974MPD1    H114258   3.519   3.415  16.063
  974MPD1    H214259   3.434   3.576  15.681
  974MPD1    H314260   3.443   3.387  15.836
  974MPD1     N14261   3.507   3.655  16.199
  974MPD1    H514262   3.516   3.753  16.225
  974MPD1    N114263   3.475   3.836  15.760
  974MPD1    H614264   3.464   3.832  15.659
  974MPD1    H714265   3.545   3.908  15.776
  975TCq2    C114266   3.488   3.556  16.297
  975TCq2    O214267   3.465   3.437  16.284
  975TCq2    C214268   3.466   3.615  16.430
  975TCq2    C314269   3.388   3.542  16.514
  975TCq2    C414270   3.363   3.601  16.631
  975TCq2    C514271   3.436   3.714  16.676
  975TCq2    C614272   3.519   3.784  16.588
  975TCq2    C714273   3.535   3.730  16.458
  975TCq2    C814274   3.591   3.900  16.623
  975TCq2    O414275   3.631   3.969  16.532
  975TCq2    C914276   3.273   3.526  16.714
  975TCq2    O514277   3.241   3.411  16.687
  975TCq2    O614278   3.198   3.626  16.771
  975TCq2    H214279   3.321   3.465  16.477
  975TCq2    H314280   3.399   3.754  16.769
  975TCq2    H414281   3.606   3.780  16.394
  976TCq1    O114282   1.322   2.749  13.117
  976TCq1    C114283   1.356   2.620  13.148
  976TCq1    O214284   1.286   2.518  13.129
  976TCq1    C214285   1.429   2.657  13.269
  976TCq1    C314286   1.352   2.665  13.383
  976TCq1    C414287   1.405   2.733  13.489
  976TCq1    C514288   1.536   2.773  13.493
  976TCq1    C614289   1.604   2.772  13.375
  976TCq1    C714290   1.557   2.714  13.264
  976TCq1    C814291   1.726   2.845  13.369
  976TCq1    O414292   1.738   2.918  13.273
  976TCq1    C914293   1.325   2.753  13.607
  976TCq1    O514294   1.375   2.821  13.691
  976TCq1    O614295   1.272   2.630  13.628
  976TCq1    H114296   1.374   2.817  13.164
  976TCq1    H214297   1.246   2.645  13.376
  976TCq1    H314298   1.561   2.832  13.580
  976TCq1    H414299   1.601   2.722  13.165
  977MPD2     C14300   1.999   2.935  13.377
  977MPD2    C114301   1.940   2.871  13.483
  977MPD2    C214302   2.015   2.839  13.599
  977MPD2    C314303   2.149   2.870  13.604
  977MPD2    C414304   2.207   2.934  13.495
  977MPD2    C514305   2.135   2.965  13.382
  977MPD2     H14306   1.971   2.788  13.684
  977MPD2    H114307   2.309   2.971  13.489
  977MPD2    H214308   1.953   2.941  13.279
  977MPD2    H314309   2.182   3.024  13.304
  977MPD2     N14310   2.225   2.849  13.717
  977MPD2    H514311   2.178   2.808  13.797
  977MPD2    N114312   1.811   2.821  13.475
  977MPD2    H714313   1.772   2.766  13.551
  978TCq1    O114314   2.627   2.932  14.165
  978TCq1    C114315   2.686   2.833  14.089
  978TCq1    O214316   2.781   2.760  14.125
  978TCq1    C214317   2.585   2.777  14.004
  978TCq1    C314318   2.536   2.657  14.050
  978TCq1    C414319   2.415   2.629  13.994
  978TCq1    C514320   2.352   2.691  13.895
  978TCq1    C614321   2.416   2.802  13.846
  978TCq1    C714322   2.533   2.846  13.899
  978TCq1    C814323   2.359   2.875  13.731
  978TCq1    O414324   2.437   2.945  13.671
  978TCq1    C914325   2.343   2.527  14.062
  978TCq1    O514326   2.231   2.551  14.106
  978TCq1    O614327   2.421   2.422  14.091
  978TCq1    H114328   2.544   2.961  14.121
  978TCq1    H214329   2.580   2.609  14.137
  978TCq1    H314330   2.261   2.649  13.854
  978TCq1    H414331   2.574   2.943  13.871
  979MPD2     C14332   1.428   4.080  15.152
  979MPD2    C114333   1.321   3.996  15.140
  979MPD2    C214334   1.319   3.899  15.044
  979MPD2    C314335   1.430   3.886  14.958
  979MPD2    C414336   1.540   3.970  14.975
  979MPD2    C514337   1.534   4.065  15.068
  979MPD2     H14338   1.236   3.829  15.037
  979MPD2    H114339   1.634   3.951  14.925
  979MPD2    H214340   1.431   4.148  15.236
  979MPD2    H314341   1.630   4.110  15.092
  979MPD2     N14342   1.454   3.776  14.871
  979MPD2    H514343   1.549   3.763  14.837
  979MPD2    N114344   1.210   4.015  15.222
  979MPD2    H714345   1.192   4.108  15.260
  980TMC3    C114346   0.988   3.975  15.292
  980TMC3    C214347   0.901   3.871  15.329
  980TMC3    C314348   0.769   3.879  15.305
  980TMC3    C414349   0.938   4.086  15.232
  980TMC3    C514350   0.800   4.092  15.215
  980TMC3    C614351   0.719   3.997  15.263
  980TMC3     C14352   1.106   3.918  15.232
  980TMC3     O14353   1.103   3.795  15.223
  980TMC3     H14354   0.936   3.787  15.389
  980TMC3    H114355   1.002   4.172  15.213
  980TMC3    H214356   0.613   4.018  15.253
  980TMC3    C714357   0.744   4.179  15.116
  980TMC3    C814358   0.724   3.771  15.222
  980TMC3    O114359   0.622   4.190  15.096
  980TMC3    O214360   0.606   3.775  15.198
  981TCq1    O114361   1.143   0.322  14.478
  981TCq1    C114362   1.236   0.301  14.577
  981TCq1    O214363   1.338   0.373  14.600
  981TCq1    C214364   1.195   0.196  14.670
  981TCq1    C314365   1.286   0.178  14.775
  981TCq1    C414366   1.276   0.063  14.849
  981TCq1    C514367   1.200   4.764  14.807
  981TCq1    C614368   1.122   4.777  14.692
  981TCq1    C714369   1.122   0.088  14.626
  981TCq1    C814370   1.025   4.682  14.662
  981TCq1    O414371   0.995   4.666  14.542
  981TCq1    C914372   1.379   0.034  14.941
  981TCq1    O514373   1.488   0.081  14.922
  981TCq1    O614374   1.337   4.773  15.049
  981TCq1    H114375   1.069   0.257  14.473
  981TCq1    H214376   1.355   0.256  14.805
  981TCq1    H314377   1.222   4.673  14.861
  981TCq1    H414378   1.073   0.086  14.529
  982MPD2     C14379   0.816   4.466  14.697
  982MPD2    C114380   0.926   4.489  14.787
  982MPD2    C214381   0.935   4.410  14.901
  982MPD2    C314382   0.832   4.327  14.940
  982MPD2    C414383   0.739   4.289  14.842
  982MPD2    C514384   0.723   4.367  14.730
  982MPD2     H14385   1.016   4.434  14.969
  982MPD2    H114386   0.661   4.215  14.858
  982MPD2    H214387   0.787   4.529  14.614
  982MPD2    H314388   0.638   4.342  14.668
  982MPD2     N14389   0.842   4.252  15.058
  982MPD2    H514390   0.935   4.236  15.095
  982MPD2    N114391   1.014   4.601  14.769
  982MPD2    H714392   1.059   4.624  14.857
  983TMC2    C114393   1.289   3.375  14.896
  983TMC2    C214394   1.389   3.362  14.993
  983TMC2    C314395   1.499   3.437  14.988
  983TMC2    C414396   1.305   3.470  14.805
  983TMC2    C514397   1.403   3.563  14.817
  983TMC2    C614398   1.518   3.534  14.897
  983TMC2     C14399   1.170   3.399  14.973
  983TMC2     O14400   1.188   3.424  15.094
  983TMC2     H14401   1.370   3.301  15.081
  983TMC2    H114402   1.216   3.502  14.751
  983TMC2    H214403   1.613   3.581  14.876
  983TMC2    C714404   1.354   3.692  14.839
  983TMC2    C814405   1.621   3.395  15.054
  983TMC2    O114406   1.229   3.708  14.839
  983TMC2    O214407   1.730   3.439  15.016
  983TMC2    O514408   1.602   3.273  15.098
  983TMC2    H514409   1.528   3.267  15.162
  984MPD2     C14410   0.696   3.588  15.004
  984MPD2    C114411   0.814   3.608  15.068
  984MPD2    C214412   0.931   3.545  15.028
  984MPD2    C314413   0.939   3.459  14.924
  984MPD2    C414414   0.821   3.448  14.847
  984MPD2    C514415   0.703   3.511  14.892
  984MPD2     H14416   1.015   3.571  15.092
  984MPD2    H114417   0.832   3.403  14.748
  984MPD2    H214418   0.602   3.642  15.018
  984MPD2    H314419   0.614   3.507  14.829
  984MPD2     N14420   1.059   3.397  14.892
  984MPD2    H514421   1.060   3.360  14.798
  984MPD2    N114422   0.829   3.701  15.174
  984MPD2    H714423   0.923   3.719  15.209
  985NH3     N114424   2.490   2.510   0.974
  985NH3     H214425   2.592   2.508   0.979
  985NH3     H314426   2.459   2.568   1.051
  985NH3     H414427   2.459   2.415   0.995
  986NA      NA14428   3.726   0.876   2.695
  987NA      NA14429   1.966   4.023   2.034
  988NA      NA14430   3.363   2.011   4.321
  989NA      NA14431   0.260   1.915   8.640
  990NA      NA14432   0.137   2.851   6.367
  991NA      NA14433   1.467   0.452   4.789
  992NA      NA14434   4.264   2.410  10.371
  993NA      NA14435   1.842   0.776   6.166
  994NA      NA14436   2.762   1.954   9.103
  995NA      NA14437   2.574   2.975   1.533
  996NA      NA14438   2.617   1.420   2.750
  997NA      NA14439   2.655   0.524   9.705
  998NA      NA14440   0.843   1.402   5.345
  999NA      NA14441   4.578   1.263  14.998
 1000NA      NA14442   3.771   1.433  11.870
 1001NA      NA14443   1.408   1.992   7.206
 1002NA      NA14444   4.043   1.895   6.433
 1003NA      NA14445   0.060   2.991   3.082
 1004NA      NA14446   4.211   4.665   8.109
 1005NA      NA14447   0.809   2.300   4.471
 1006NA      NA14448   3.533   0.889   4.847
 1007NA      NA14449   4.450   0.551   6.726
 1008NA      NA14450   1.130   0.732   2.201
 1009NA      NA14451   3.493   3.269   7.242
 1010NA      NA14452   2.370   2.038   7.696
 1011NA      NA14453   2.757   2.541  13.880
 1012NA      NA14454   2.557   0.704  11.142
 1013NA      NA14455   0.351   3.397   8.948
 1014NA      NA14456   3.036   0.536   9.841
 1015NA      NA14457   0.651   4.382   3.928
 1016NA      NA14458   2.629   4.649  11.746
 1017NA      NA14459   2.116   4.532  10.149
 1018NA      NA14460   4.533   0.137   3.371
 1019NA      NA14461   3.852   3.696   8.883
 1020NA      NA14462   3.558   4.190  17.285
 1021NA      NA14463   2.992   2.853   8.377
 1022NA      NA14464   4.031   4.583   1.922
 1023NA      NA14465   2.642   1.820   3.099
 1024NA      NA14466   0.072   4.170  10.548
 1025NA      NA14467   4.131   1.811   7.451
 1026NA      NA14468   0.482   3.987   5.088
 1027NA      NA14469   1.185   0.443   3.069
 1028NA      NA14470   2.749   1.565   1.302
 1029NA      NA14471   3.770   1.132   3.329
 1030NA      NA14472   4.648   1.232   4.274
 1031NA      NA14473   3.083   0.261   3.814
 1032NA      NA14474   1.343   0.843  13.833
 1033NA      NA14475   0.167   4.057   9.727
 1034NA      NA14476   4.042   4.032   7.250
 1035NA      NA14477   2.365   1.223   4.480
 1036NA      NA14478   3.516   4.631   8.664
 1037NA      NA14479   2.423   1.475   5.660
 1038NA      NA14480   0.066   1.714   2.392
 1039NA      NA14481   3.235   3.890   8.025
 1040NA      NA14482   3.740   3.569   5.749
 1041NA      NA14483   2.579   3.448   5.359
 1042NA      NA14484   3.761   3.564  12.901
 1043NA      NA14485   2.166   2.828  11.685
 1044NA      NA14486   0.359   1.273  10.014
 1045NA      NA14487   4.537   1.175  16.358
 1046NA      NA14488   4.593   2.502   3.105
 1047NA      NA14489   3.419   2.161   9.465
 1048NA      NA14490   2.910   0.371  15.871
 1049NA      NA14491   0.929   1.794   1.716
 1050NA      NA14492   2.168   4.099   3.362
 1051NA      NA14493   4.708   3.367   5.761
 1052SOL     OW14494   0.225   0.275   0.996
 1052SOL    HW114495   0.260   0.258   1.088
 1052SOL    HW214496   0.137   0.230   0.984
 1053SOL     OW14497   0.019   0.368   0.647
 1053SOL    HW114498  -0.063   0.411   0.686
 1053SOL    HW214499  -0.009   0.295   0.584
 1054SOL     OW14500   0.569   1.275   1.165
 1054SOL    HW114501   0.476   1.268   1.128
 1054SOL    HW214502   0.580   1.364   1.209
 1055SOL     OW14503   1.555   1.511   0.703
 1055SOL    HW114504   1.498   1.495   0.784
 1055SOL    HW214505   1.496   1.521   0.623
 1056SOL     OW14506   0.768   1.144   1.023
 1056SOL    HW114507   0.690   1.161   1.083
 1056SOL    HW214508   0.802   1.231   0.987
 1057SOL     OW14509   0.685   1.012   0.665
 1057SOL    HW114510   0.754   0.996   0.735
 1057SOL    HW214511   0.612   1.069   0.703
 1058SOL     OW14512   0.335   1.435   1.061
 1058SOL    HW114513   0.257   1.404   1.008
 1058SOL    HW214514   0.393   1.493   1.004
 1059SOL     OW14515   1.603   0.447   0.737
 1059SOL    HW114516   1.529   0.493   0.687
 1059SOL    HW214517   1.654   0.515   0.790
 1060SOL     OW14518   0.231   1.713   0.483
 1060SOL    HW114519   0.265   1.790   0.537
 1060SOL    HW214520   0.275   1.713   0.393
 1061SOL     OW14521   1.127   1.341   1.690
 1061SOL    HW114522   1.174   1.341   1.778
 1061SOL    HW214523   1.079   1.254   1.679
 1062SOL     OW14524   0.122   0.643   0.563
 1062SOL    HW114525   0.077   0.555   0.580
 1062SOL    HW214526   0.121   0.697   0.647
 1063SOL     OW14527   0.113   0.737   1.597
 1063SOL    HW114528   0.201   0.724   1.642
 1063SOL    HW214529   0.100   0.834   1.575
 1064SOL     OW14530   0.613   1.365   0.726
 1064SOL    HW114531   0.564   1.278   0.735
 1064SOL    HW214532   0.590   1.408   0.639
 1065SOL     OW14533   1.293   1.228   1.423
 1065SOL    HW114534   1.330   1.155   1.365
 1065SOL    HW214535   1.345   1.233   1.508
 1066SOL     OW14536   0.809   0.004   0.502
 1066SOL    HW114537   0.849   0.095   0.493
 1066SOL    HW214538   0.709   0.012   0.508
 1067SOL     OW14539   1.187   1.792   1.616
 1067SOL    HW114540   1.211   1.852   1.540
 1067SOL    HW214541   1.194   1.697   1.586
 1068SOL     OW14542   0.317   0.251   1.801
 1068SOL    HW114543   0.388   0.322   1.807
 1068SOL    HW214544   0.229   0.290   1.829
 1069SOL     OW14545   1.281   0.345   0.944
 1069SOL    HW114546   1.195   0.295   0.931
 1069SOL    HW214547   1.343   0.291   1.000
 1070SOL     OW14548   1.576   1.662   0.307
 1070SOL    HW114549   1.665   1.708   0.310
 1070SOL    HW214550   1.555   1.638   0.212
 1071SOL     OW14551   1.394   0.469   1.674
 1071SOL    HW114552   1.374   0.512   1.762
 1071SOL    HW214553   1.472   0.407   1.683
 1072SOL     OW14554   1.041   0.701   0.429
 1072SOL    HW114555   1.067   0.697   0.525
 1072SOL    HW214556   0.956   0.650   0.415
 1073SOL     OW14557   0.076   0.811   0.789
 1073SOL    HW114558   0.175   0.799   0.798
 1073SOL    HW214559   0.052   0.906   0.810
 1074SOL     OW14560   0.865   0.348   0.195
 1074SOL    HW114561   0.924   0.411   0.146
 1074SOL    HW214562   0.884   0.254   0.166
 1075SOL     OW14563   1.719   0.585   1.831
 1075SOL    HW114564   1.693   0.674   1.795
 1075SOL    HW214565   1.717   0.517   1.758
 1076SOL     OW14566   1.227   1.550   1.506
 1076SOL    HW114567   1.233   1.473   1.570
 1076SOL    HW214568   1.175   1.524   1.426
 1077SOL     OW14569   0.464   1.743   0.323
 1077SOL    HW114570   0.497   1.782   0.409
 1077SOL    HW214571   0.540   1.736   0.258
 1078SOL     OW14572   0.940   1.698   0.904
 1078SOL    HW114573   1.020   1.641   0.925
 1078SOL    HW214574   0.891   1.658   0.827
 1079SOL     OW14575   1.547   0.222   1.729
 1079SOL    HW114576   1.542   0.259   1.821
 1079SOL    HW214577   1.475   0.153   1.717
 1080SOL     OW14578   0.781   0.264   1.749
 1080SOL    HW114579   0.848   0.203   1.792
 1080SOL    HW214580   0.708   0.283   1.814
 1081SOL     OW14581   0.539   0.064   0.512
 1081SOL    HW114582   0.458   0.065   0.570
 1081SOL    HW214583   0.542   0.147   0.457
 1082SOL     OW14584   1.434   1.188   0.041
 1082SOL    HW114585   1.466   1.112   0.098
 1082SOL    HW214586   1.342   1.215   0.071
 1083SOL     OW14587   0.935   0.236   0.480
 1083SOL    HW114588   0.887   0.277   0.402
 1083SOL    HW214589   1.034   0.234   0.461
 1084SOL     OW14590   0.459   1.152   0.741
 1084SOL    HW114591   0.388   1.125   0.806
 1084SOL    HW214592   0.433   1.124   0.648
 1085SOL     OW14593   0.078   0.556   1.386
 1085SOL    HW114594   0.170   0.555   1.345
 1085SOL    HW214595   0.072   0.630   1.453
 1086SOL     OW14596   0.866   0.454   0.642
 1086SOL    HW114597   0.834   0.526   0.580
 1086SOL    HW214598   0.890   0.373   0.589
 1087SOL     OW14599   1.017   0.039   0.753
 1087SOL    HW114600   0.945   0.044   0.684
 1087SOL    HW214601   0.993  -0.030   0.822
 1088SOL     OW14602   1.429   1.173   0.867
 1088SOL    HW114603   1.374   1.089   0.860
 1088SOL    HW214604   1.455   1.202   0.775
 1089SOL     OW14605   1.466   0.590   0.992
 1089SOL    HW114606   1.436   0.495   0.999
 1089SOL    HW214607   1.539   0.606   1.058
 1090SOL     OW14608   1.664   1.280   0.657
 1090SOL    HW114609   1.763   1.288   0.671
 1090SOL    HW214610   1.619   1.364   0.688
 1091SOL     OW14611   0.527   0.256   0.328
 1091SOL    HW114612   0.554   0.197   0.253
 1091SOL    HW214613   0.527   0.351   0.297
 1092SOL     OW14614   1.592   1.629   1.625
 1092SOL    HW114615   1.619   1.663   1.535
 1092SOL    HW214616   1.671   1.591   1.671
 1093SOL     OW14617   0.367   1.100   0.501
 1093SOL    HW114618   0.360   1.183   0.445
 1093SOL    HW214619   0.371   1.020   0.441
 1094SOL     OW14620   1.272   1.445   1.142
 1094SOL    HW114621   1.319   1.458   1.229
 1094SOL    HW214622   1.206   1.371   1.151
 1095SOL     OW14623   1.587   0.779   1.670
 1095SOL    HW114624   1.495   0.817   1.665
 1095SOL    HW214625   1.647   0.826   1.605
 1096SOL     OW14626   1.013   0.105   1.770
 1096SOL    HW114627   1.019   0.190   1.718
 1096SOL    HW214628   1.045   0.029   1.713
 1097SOL     OW14629   0.504   0.050   1.740
 1097SOL    HW114630   0.462  -0.007   1.670
 1097SOL    HW214631   0.438   0.119   1.772
 1098SOL     OW14632   0.573   0.870   1.029
 1098SOL    HW114633   0.617   0.959   1.020
 1098SOL    HW214634   0.510   0.870   1.106
 1099SOL     OW14635   1.728   0.935   1.854
 1099SOL    HW114636   1.682   0.928   1.765
 1099SOL    HW214637   1.666   0.979   1.920
 1100SOL     OW14638   0.980   1.573   1.700
 1100SOL    HW114639   0.960   1.617   1.612
 1100SOL    HW214640   1.019   1.482   1.684
 1101SOL     OW14641   1.303   0.838   0.042
 1101SOL    HW114642   1.337   0.745   0.057
 1101SOL    HW214643   1.321   0.865  -0.053
 1102SOL     OW14644   0.319   0.810   0.949
 1102SOL    HW114645   0.412   0.846   0.954
 1102SOL    HW214646   0.313   0.725   1.001
 1103SOL     OW14647   0.339   0.509   1.006
 1103SOL    HW114648   0.287   0.426   0.989
 1103SOL    HW214649   0.416   0.514   0.942
 1104SOL     OW14650   0.008   1.326   0.200
 1104SOL    HW114651  -0.085   1.347   0.169
 1104SOL    HW214652   0.018   1.227   0.213
 1105SOL     OW14653   0.504   1.568   0.910
 1105SOL    HW114654   0.570   1.642   0.919
 1105SOL    HW214655   0.548   1.489   0.868
 1106SOL     OW14656   0.040   0.544   1.114
 1106SOL    HW114657   0.125   0.511   1.073
 1106SOL    HW214658   0.053   0.559   1.212
 1107SOL     OW14659   0.189   0.520   1.722
 1107SOL    HW114660   0.248   0.480   1.652
 1107SOL    HW214661   0.131   0.591   1.681
 1108SOL     OW14662   1.369   0.950   1.660
 1108SOL    HW114663   1.408   1.039   1.680
 1108SOL    HW214664   1.379   0.930   1.563
 1109SOL     OW14665   0.815   0.572   0.325
 1109SOL    HW114666   0.822   0.483   0.279
 1109SOL    HW214667   0.721   0.606   0.317
 1110SOL     OW14668   0.252   1.564   1.744
 1110SOL    HW114669   0.222   1.621   1.820
 1110SOL    HW214670   0.245   1.467   1.770
 1111SOL     OW14671   0.930   1.678   1.465
 1111SOL    HW114672   0.906   1.660   1.370
 1111SOL    HW214673   0.960   1.772   1.475
 1112SOL     OW14674   1.252   1.731   1.128
 1112SOL    HW114675   1.336   1.736   1.074
 1112SOL    HW214676   1.229   1.635   1.146
 1113SOL     OW14677   0.688   1.662   1.716
 1113SOL    HW114678   0.632   1.743   1.725
 1113SOL    HW214679   0.740   1.666   1.630
 1114SOL     OW14680   0.130   1.794   1.851
 1114SOL    HW114681   0.089   1.720   1.904
 1114SOL    HW214682   0.194   1.845   1.909
 1115SOL     OW14683   1.650   1.720   1.394
 1115SOL    HW114684   1.703   1.730   1.310
 1115SOL    HW214685   1.623   1.810   1.428
 1116SOL     OW14686   1.194   1.612   0.031
 1116SOL    HW114687   1.200   1.519   0.068
 1116SOL    HW214688   1.135   1.612  -0.049
 1117SOL     OW14689   0.916   0.910   0.291
 1117SOL    HW114690   0.979   0.948   0.223
 1117SOL    HW214691   0.956   0.827   0.330
 1118SOL     OW14692   0.255   1.348   0.290
 1118SOL    HW114693   0.159   1.349   0.263
 1118SOL    HW214694   0.267   1.401   0.374
 1119SOL     OW14695   0.105   1.013   1.726
 1119SOL    HW114696   0.028   0.980   1.780
 1119SOL    HW214697   0.190   0.983   1.768
 1120SOL     OW14698   0.672   0.203   1.489
 1120SOL    HW114699   0.762   0.187   1.449
 1120SOL    HW214700   0.680   0.208   1.588
 1121SOL     OW14701   1.183   1.335   0.119
 1121SOL    HW114702   1.084   1.324   0.121
 1121SOL    HW214703   1.217   1.350   0.212
 1122SOL     OW14704   1.450   1.220   1.633
 1122SOL    HW114705   1.441   1.210   1.732
 1122SOL    HW214706   1.546   1.213   1.607
 1123SOL     OW14707   0.390   1.741   1.560
 1123SOL    HW114708   0.299   1.782   1.558
 1123SOL    HW214709   0.383   1.647   1.592
 1124SOL     OW14710   1.225   0.325   0.449
 1124SOL    HW114711   1.290   0.251   0.438
 1124SOL    HW214712   1.245   0.375   0.533
 1125SOL     OW14713   0.594   0.745   0.652
 1125SOL    HW114714   0.644   0.830   0.633
 1125SOL    HW214715   0.506   0.747   0.604
 1126SOL     OW14716   1.777   0.342   1.642
 1126SOL    HW114717   1.760   0.373   1.548
 1126SOL    HW214718   1.693   0.305   1.680
 1127SOL     OW14719   0.661   1.790   0.953
 1127SOL    HW114720   0.615   1.878   0.940
 1127SOL    HW214721   0.760   1.802   0.946
 1128SOL     OW14722   0.859   0.956   0.861
 1128SOL    HW114723   0.913   0.887   0.909
 1128SOL    HW214724   0.827   1.025   0.927
 1129SOL     OW14725   0.079   1.240   0.653
 1129SOL    HW114726   0.078   1.193   0.741
 1129SOL    HW214727   0.161   1.212   0.602
 1130SOL     OW14728   1.593   0.221   0.882
 1130SOL    HW114729   1.509   0.220   0.936
 1130SOL    HW214730   1.595   0.304   0.826
 1131SOL     OW14731   0.039   1.077   0.300
 1131SOL    HW114732   0.138   1.066   0.291
 1131SOL    HW214733  -0.001   0.991   0.332
 1132SOL     OW14734   0.230   0.628   1.975
 1132SOL    HW114735   0.137   0.626   2.012
 1132SOL    HW214736   0.231   0.589   1.883
 1133SOL     OW14737   0.225   0.275   2.858
 1133SOL    HW114738   0.260   0.258   2.950
 1133SOL    HW214739   0.137   0.230   2.846
 1134SOL     OW14740   0.019   0.368   2.509
 1134SOL    HW114741  -0.063   0.411   2.548
 1134SOL    HW214742  -0.009   0.295   2.446
 1135SOL     OW14743   0.569   1.275   3.027
 1135SOL    HW114744   0.476   1.268   2.990
 1135SOL    HW214745   0.580   1.364   3.071
 1136SOL     OW14746   1.555   1.511   2.565
 1136SOL    HW114747   1.498   1.495   2.646
 1136SOL    HW214748   1.496   1.521   2.485
 1137SOL     OW14749   1.135   0.703   2.579
 1137SOL    HW114750   1.192   0.781   2.554
 1137SOL    HW214751   1.075   0.729   2.655
 1138SOL     OW14752   1.755   0.607   2.093
 1138SOL    HW114753   1.743   0.594   1.994
 1138SOL    HW214754   1.725   0.526   2.142
 1139SOL     OW14755   0.768   1.144   2.885
 1139SOL    HW114756   0.690   1.161   2.945
 1139SOL    HW214757   0.802   1.231   2.849
 1140SOL     OW14758   0.850   0.798   3.685
 1140SOL    HW114759   0.846   0.874   3.750
 1140SOL    HW214760   0.872   0.834   3.594
 1141SOL     OW14761   0.685   1.012   2.527
 1141SOL    HW114762   0.754   0.996   2.597
 1141SOL    HW214763   0.612   1.069   2.565
 1142SOL     OW14764   0.686   1.161   3.665
 1142SOL    HW114765   0.746   1.240   3.679
 1142SOL    HW214766   0.600   1.192   3.624
 1143SOL     OW14767   0.335   1.435   2.923
 1143SOL    HW114768   0.257   1.404   2.870
 1143SOL    HW214769   0.393   1.493   2.866
 1144SOL     OW14770   1.460   1.505   3.201
 1144SOL    HW114771   1.484   1.599   3.227
 1144SOL    HW214772   1.444   1.451   3.283
 1145SOL     OW14773   0.438   0.392   3.361
 1145SOL    HW114774   0.520   0.336   3.370
 1145SOL    HW214775   0.357   0.334   3.365
 1146SOL     OW14776   1.603   0.447   2.599
 1146SOL    HW114777   1.529   0.493   2.549
 1146SOL    HW214778   1.654   0.515   2.652
 1147SOL     OW14779   1.127   1.341   3.552
 1147SOL    HW114780   1.174   1.341   3.640
 1147SOL    HW214781   1.079   1.254   3.541
 1148SOL     OW14782   0.230   1.434   2.400
 1148SOL    HW114783   0.204   1.530   2.400
 1148SOL    HW214784   0.159   1.380   2.445
 1149SOL     OW14785   0.240   1.091   2.748
 1149SOL    HW114786   0.254   1.007   2.800
 1149SOL    HW214787   0.185   1.155   2.803
 1150SOL     OW14788   0.620   1.786   3.301
 1150SOL    HW114789   0.528   1.769   3.336
 1150SOL    HW214790   0.648   1.878   3.327
 1151SOL     OW14791   1.594   0.114   3.342
 1151SOL    HW114792   1.576   0.181   3.270
 1151SOL    HW214793   1.591   0.160   3.431
 1152SOL     OW14794   0.122   0.643   2.425
 1152SOL    HW114795   0.077   0.555   2.442
 1152SOL    HW214796   0.121   0.697   2.509
 1153SOL     OW14797   1.842   1.767   2.221
 1153SOL    HW114798   1.896   1.738   2.301
 1153SOL    HW214799   1.872   1.857   2.192
 1154SOL     OW14800   0.027   1.596   1.979
 1154SOL    HW114801   0.008   1.500   2.000
 1154SOL    HW214802  -0.006   1.654   2.054
 1155SOL     OW14803   1.689   0.922   2.474
 1155SOL    HW114804   1.784   0.893   2.482
 1155SOL    HW214805   1.681   0.987   2.399
 1156SOL     OW14806   1.641   1.108   2.294
 1156SOL    HW114807   1.727   1.110   2.242
 1156SOL    HW214808   1.655   1.155   2.382
 1157SOL     OW14809   0.113   0.737   3.459
 1157SOL    HW114810   0.201   0.724   3.504
 1157SOL    HW214811   0.100   0.834   3.437
 1158SOL     OW14812   0.613   1.365   2.588
 1158SOL    HW114813   0.564   1.278   2.597
 1158SOL    HW214814   0.590   1.408   2.501
 1159SOL     OW14815   1.293   1.228   3.285
 1159SOL    HW114816   1.330   1.155   3.227
 1159SOL    HW214817   1.345   1.233   3.370
 1160SOL     OW14818   0.809   0.004   2.364
 1160SOL    HW114819   0.849   0.095   2.355
 1160SOL    HW214820   0.709   0.012   2.370
 1161SOL     OW14821   0.197   0.976   3.126
 1161SOL    HW114822   0.286   0.931   3.112
 1161SOL    HW214823   0.124   0.911   3.107
 1162SOL     OW14824   1.525   0.999   2.052
 1162SOL    HW114825   1.462   0.923   2.065
 1162SOL    HW214826   1.573   1.017   2.138
 1163SOL     OW14827   1.187   1.792   3.478
 1163SOL    HW114828   1.211   1.852   3.402
 1163SOL    HW214829   1.194   1.697   3.448
 1164SOL     OW14830   0.317   0.251   3.663
 1164SOL    HW114831   0.388   0.322   3.669
 1164SOL    HW214832   0.229   0.290   3.691
 1165SOL     OW14833   1.466   1.417   2.815
 1165SOL    HW114834   1.407   1.423   2.895
 1165SOL    HW214835   1.451   1.329   2.769
 1166SOL     OW14836   1.667   1.714   2.434
 1166SOL    HW114837   1.626   1.691   2.346
 1166SOL    HW214838   1.649   1.640   2.499
 1167SOL     OW14839   0.598   0.729   2.132
 1167SOL    HW114840   0.622   0.798   2.064
 1167SOL    HW214841   0.520   0.762   2.186
 1168SOL     OW14842   1.281   0.345   2.806
 1168SOL    HW114843   1.195   0.295   2.793
 1168SOL    HW214844   1.343   0.291   2.862
 1169SOL     OW14845   1.576   1.662   2.169
 1169SOL    HW114846   1.665   1.708   2.172
 1169SOL    HW214847   1.555   1.638   2.074
 1170SOL     OW14848   0.807   0.605   3.327
 1170SOL    HW114849   0.760   0.602   3.416
 1170SOL    HW214850   0.756   0.550   3.261
 1171SOL     OW14851   1.394   0.469   3.536
 1171SOL    HW114852   1.374   0.512   3.624
 1171SOL    HW214853   1.472   0.407   3.545
 1172SOL     OW14854   0.973   0.890   3.434
 1172SOL    HW114855   1.019   0.806   3.405
 1172SOL    HW214856   0.917   0.924   3.359
 1173SOL     OW14857   0.991   0.410   3.104
 1173SOL    HW114858   0.914   0.444   3.158
 1173SOL    HW214859   0.957   0.359   3.025
 1174SOL     OW14860   0.076   0.811   2.651
 1174SOL    HW114861   0.175   0.799   2.660
 1174SOL    HW214862   0.052   0.906   2.672
 1175SOL     OW14863   0.130   1.821   3.433
 1175SOL    HW114864   0.120   1.806   3.532
 1175SOL    HW214865   0.044   1.857   3.397
 1176SOL     OW14866   0.865   0.348   2.057
 1176SOL    HW114867   0.924   0.411   2.008
 1176SOL    HW214868   0.884   0.254   2.028
 1177SOL     OW14869   1.719   0.585   3.693
 1177SOL    HW114870   1.693   0.674   3.657
 1177SOL    HW214871   1.717   0.517   3.620
 1178SOL     OW14872   1.362   1.144   2.407
 1178SOL    HW114873   1.445   1.115   2.359
 1178SOL    HW214874   1.313   1.211   2.351
 1179SOL     OW14875   0.550   0.196   2.747
 1179SOL    HW114876   0.545   0.191   2.847
 1179SOL    HW214877   0.552   0.292   2.718
 1180SOL     OW14878   1.008   1.456   2.339
 1180SOL    HW114879   0.962   1.528   2.287
 1180SOL    HW214880   1.004   1.476   2.437
 1181SOL     OW14881   0.351   1.801   2.715
 1181SOL    HW114882   0.401   1.715   2.721
 1181SOL    HW214883   0.416   1.878   2.712
 1182SOL     OW14884   1.795   1.066   2.735
 1182SOL    HW114885   1.733   1.051   2.659
 1182SOL    HW214886   1.743   1.077   2.820
 1183SOL     OW14887   1.227   1.550   3.368
 1183SOL    HW114888   1.233   1.473   3.432
 1183SOL    HW214889   1.175   1.524   3.288
 1184SOL     OW14890   0.321   0.943   2.104
 1184SOL    HW114891   0.403   0.982   2.062
 1184SOL    HW214892   0.294   0.861   2.055
 1185SOL     OW14893   1.458   0.735   2.590
 1185SOL    HW114894   1.453   0.670   2.665
 1185SOL    HW214895   1.538   0.794   2.603
 1186SOL     OW14896   0.461   1.266   3.589
 1186SOL    HW114897   0.411   1.267   3.503
 1186SOL    HW214898   0.398   1.248   3.665
 1187SOL     OW14899   1.111   1.776   2.099
 1187SOL    HW114900   1.051   1.714   2.149
 1187SOL    HW214901   1.142   1.732   2.014
 1188SOL     OW14902   0.202   0.285   3.360
 1188SOL    HW114903   0.122   0.345   3.347
 1188SOL    HW214904   0.192   0.236   3.446
 1189SOL     OW14905   1.632   1.377   1.943
 1189SOL    HW114906   1.600   1.471   1.933
 1189SOL    HW214907   1.556   1.314   1.931
 1190SOL     OW14908   0.464   1.743   2.185
 1190SOL    HW114909   0.497   1.782   2.271
 1190SOL    HW214910   0.540   1.736   2.120
 1191SOL     OW14911   1.400   0.107   2.288
 1191SOL    HW114912   1.376   0.070   2.198
 1191SOL    HW214913   1.499   0.123   2.292
 1192SOL     OW14914   0.249   1.785   3.103
 1192SOL    HW114915   0.306   1.720   3.153
 1192SOL    HW214916   0.233   1.752   3.010
 1193SOL     OW14917   0.940   1.698   2.766
 1193SOL    HW114918   1.020   1.641   2.787
 1193SOL    HW214919   0.891   1.658   2.689
 1194SOL     OW14920   0.382   0.700   2.342
 1194SOL    HW114921   0.427   0.610   2.339
 1194SOL    HW214922   0.288   0.689   2.375
 1195SOL     OW14923   1.547   0.222   3.591
 1195SOL    HW114924   1.542   0.259   3.683
 1195SOL    HW214925   1.475   0.153   3.579
 1196SOL     OW14926   0.614   0.122   1.979
 1196SOL    HW114927   0.712   0.100   1.986
 1196SOL    HW214928   0.583   0.105   1.886
 1197SOL     OW14929   0.781   0.264   3.611
 1197SOL    HW114930   0.848   0.203   3.654
 1197SOL    HW214931   0.708   0.283   3.676
 1198SOL     OW14932   0.888   1.514   3.057
 1198SOL    HW114933   0.865   1.489   2.963
 1198SOL    HW214934   0.949   1.445   3.096
 1199SOL     OW14935   1.351   0.590   3.295
 1199SOL    HW114936   1.379   0.547   3.380
 1199SOL    HW214937   1.376   0.686   3.296
 1200SOL     OW14938   0.803   1.402   2.786
 1200SOL    HW114939   0.893   1.416   2.744
 1200SOL    HW214940   0.732   1.404   2.715
 1201SOL     OW14941   0.922   0.503   2.761
 1201SOL    HW114942   0.897   0.494   2.665
 1201SOL    HW214943   0.970   0.421   2.792
 1202SOL     OW14944   0.539   0.064   2.374
 1202SOL    HW114945   0.458   0.065   2.432
 1202SOL    HW214946   0.542   0.147   2.319
 1203SOL     OW14947   1.434   1.188   1.903
 1203SOL    HW114948   1.466   1.112   1.960
 1203SOL    HW214949   1.342   1.215   1.933
 1204SOL     OW14950   0.297   0.035   2.033
 1204SOL    HW114951   0.346   0.119   2.012
 1204SOL    HW214952   0.359  -0.030   2.078
 1205SOL     OW14953   0.935   0.236   2.342
 1205SOL    HW114954   0.887   0.277   2.264
 1205SOL    HW214955   1.034   0.234   2.323
 1206SOL     OW14956   1.076   0.683   3.326
 1206SOL    HW114957   0.996   0.622   3.329
 1206SOL    HW214958   1.157   0.630   3.302
 1207SOL     OW14959   1.227   1.570   2.655
 1207SOL    HW114960   1.248   1.644   2.590
 1207SOL    HW214961   1.295   1.570   2.728
 1208SOL     OW14962   0.459   1.152   2.603
 1208SOL    HW114963   0.388   1.125   2.668
 1208SOL    HW214964   0.433   1.124   2.510
 1209SOL     OW14965   1.271   1.797   2.453
 1209SOL    HW114966   1.315   1.861   2.389
 1209SOL    HW214967   1.221   1.849   2.523
 1210SOL     OW14968   1.032   0.549   1.878
 1210SOL    HW114969   0.991   0.631   1.839
 1210SOL    HW214970   1.096   0.575   1.951
 1211SOL     OW14971   0.078   0.556   3.248
 1211SOL    HW114972   0.170   0.555   3.207
 1211SOL    HW214973   0.072   0.630   3.315
 1212SOL     OW14974   0.561   0.222   3.009
 1212SOL    HW114975   0.599   0.138   3.046
 1212SOL    HW214976   0.473   0.241   3.053
 1213SOL     OW14977   0.866   0.454   2.504
 1213SOL    HW114978   0.834   0.526   2.442
 1213SOL    HW214979   0.890   0.373   2.451
 1214SOL     OW14980   1.017   0.039   2.615
 1214SOL    HW114981   0.945   0.044   2.546
 1214SOL    HW214982   0.993  -0.030   2.684
 1215SOL     OW14983   1.429   1.173   2.729
 1215SOL    HW114984   1.374   1.089   2.722
 1215SOL    HW214985   1.455   1.202   2.637
 1216SOL     OW14986   1.466   0.590   2.854
 1216SOL    HW114987   1.436   0.495   2.861
 1216SOL    HW214988   1.539   0.606   2.920
 1217SOL     OW14989   1.857   0.833   2.239
 1217SOL    HW114990   1.899   0.769   2.303
 1217SOL    HW214991   1.819   0.782   2.161
 1218SOL     OW14992   0.488   1.385   2.036
 1218SOL    HW114993   0.401   1.370   2.083
 1218SOL    HW214994   0.471   1.411   1.941
 1219SOL     OW14995   1.664   1.280   2.519
 1219SOL    HW114996   1.763   1.288   2.533
 1219SOL    HW214997   1.619   1.364   2.550
 1220SOL     OW14998   1.390   0.575   1.940
 1220SOL    HW114999   1.336   0.554   2.021
 1220SOL    HW215000   1.481   0.534   1.949
 1221SOL     OW15001   0.527   0.256   2.190
 1221SOL    HW115002   0.554   0.197   2.115
 1221SOL    HW215003   0.527   0.351   2.159
 1222SOL     OW15004   1.754   1.223   3.450
 1222SOL    HW115005   1.845   1.184   3.437
 1222SOL    HW215006   1.762   1.319   3.474
 1223SOL     OW15007   1.064   1.347   3.202
 1223SOL    HW115008   0.984   1.324   3.257
 1223SOL    HW215009   1.147   1.321   3.251
 1224SOL     OW15010   1.592   1.629   3.487
 1224SOL    HW115011   1.619   1.663   3.397
 1224SOL    HW215012   1.671   1.591   3.533
 1225SOL     OW15013   1.111   1.195   2.962
 1225SOL    HW115014   1.071   1.239   3.043
 1225SOL    HW215015   1.070   1.232   2.879
 1226SOL     OW15016   1.638   1.099   2.941
 1226SOL    HW115017   1.643   1.180   3.000
 1226SOL    HW215018   1.552   1.101   2.890
 1227SOL     OW15019   0.915   0.089   3.264
 1227SOL    HW115020   0.940   0.069   3.169
 1227SOL    HW215021   0.987   0.145   3.306
 1228SOL     OW15022   0.980   1.116   3.581
 1228SOL    HW115023   0.881   1.122   3.591
 1228SOL    HW215024   1.003   1.036   3.525
 1229SOL     OW15025   0.705   1.050   2.230
 1229SOL    HW115026   0.691   1.057   2.329
 1229SOL    HW215027   0.789   0.999   2.212
 1230SOL     OW15028   0.410   0.813   3.113
 1230SOL    HW115029   0.496   0.825   3.163
 1230SOL    HW215030   0.368   0.726   3.140
 1231SOL     OW15031   0.064   1.564   3.193
 1231SOL    HW115032   0.018   1.646   3.159
 1231SOL    HW215033   0.162   1.583   3.202
 1232SOL     OW15034   0.367   1.100   2.363
 1232SOL    HW115035   0.360   1.183   2.307
 1232SOL    HW215036   0.371   1.020   2.303
 1233SOL     OW15037   0.566   0.537   2.727
 1233SOL    HW115038   0.578   0.603   2.653
 1233SOL    HW215039   0.612   0.571   2.810
 1234SOL     OW15040   1.252   1.348   2.250
 1234SOL    HW115041   1.302   1.425   2.290
 1234SOL    HW215042   1.157   1.350   2.282
 1235SOL     OW15043   1.272   1.445   3.004
 1235SOL    HW115044   1.319   1.458   3.091
 1235SOL    HW215045   1.206   1.371   3.013
 1236SOL     OW15046   1.582   0.639   2.334
 1236SOL    HW115047   1.551   0.700   2.407
 1236SOL    HW215048   1.632   0.691   2.265
 1237SOL     OW15049   0.354   1.510   3.191
 1237SOL    HW115050   0.333   1.466   3.104
 1237SOL    HW215051   0.451   1.536   3.194
 1238SOL     OW15052   0.402   0.751   3.460
 1238SOL    HW115053   0.470   0.806   3.413
 1238SOL    HW215054   0.442   0.663   3.487
 1239SOL     OW15055   1.587   0.779   3.532
 1239SOL    HW115056   1.495   0.817   3.527
 1239SOL    HW215057   1.647   0.826   3.467
 1240SOL     OW15058   1.013   0.105   3.632
 1240SOL    HW115059   1.019   0.190   3.580
 1240SOL    HW215060   1.045   0.029   3.575
 1241SOL     OW15061   0.504   0.050   3.602
 1241SOL    HW115062   0.462  -0.007   3.532
 1241SOL    HW215063   0.438   0.119   3.634
 1242SOL     OW15064   0.573   0.870   2.891
 1242SOL    HW115065   0.617   0.959   2.882
 1242SOL    HW215066   0.510   0.870   2.968
 1243SOL     OW15067   1.360   0.862   2.907
 1243SOL    HW115068   1.285   0.862   2.841
 1243SOL    HW215069   1.397   0.770   2.916
 1244SOL     OW15070   0.307   0.213   3.093
 1244SOL    HW115071   0.284   0.250   3.183
 1244SOL    HW215072   0.277   0.118   3.087
 1245SOL     OW15073   0.037   1.310   3.144
 1245SOL    HW115074   0.090   1.261   3.212
 1245SOL    HW215075   0.059   1.408   3.149
 1246SOL     OW15076   0.732   0.634   2.926
 1246SOL    HW115077   0.791   0.608   2.850
 1246SOL    HW215078   0.704   0.730   2.915
 1247SOL     OW15079   1.728   0.935   3.716
 1247SOL    HW115080   1.682   0.928   3.627
 1247SOL    HW215081   1.666   0.979   3.782
 1248SOL     OW15082   0.307   0.063   2.480
 1248SOL    HW115083   0.296   0.157   2.513
 1248SOL    HW215084   0.302   0.000   2.557
 1249SOL     OW15085   1.622   0.367   2.236
 1249SOL    HW115086   1.624   0.291   2.300
 1249SOL    HW215087   1.574   0.444   2.276
 1250SOL     OW15088   1.023   0.766   2.828
 1250SOL    HW115089   1.038   0.787   2.924
 1250SOL    HW215090   0.993   0.671   2.819
 1251SOL     OW15091   0.980   1.573   3.562
 1251SOL    HW115092   0.960   1.617   3.474
 1251SOL    HW215093   1.019   1.482   3.546
 1252SOL     OW15094   1.859   1.518   3.467
 1252SOL    HW115095   1.873   1.545   3.372
 1252SOL    HW215096   1.942   1.540   3.520
 1253SOL     OW15097   0.350   0.898   3.666
 1253SOL    HW115098   0.426   0.942   3.714
 1253SOL    HW215099   0.385   0.851   3.584
 1254SOL     OW15100   1.540   0.274   1.987
 1254SOL    HW115101   1.479   0.199   2.010
 1254SOL    HW215102   1.562   0.326   2.070
 1255SOL     OW15103   1.303   0.838   1.904
 1255SOL    HW115104   1.337   0.745   1.919
 1255SOL    HW215105   1.321   0.865   1.809
 1256SOL     OW15106   1.068   1.333   2.711
 1256SOL    HW115107   1.075   1.249   2.656
 1256SOL    HW215108   1.130   1.402   2.675
 1257SOL     OW15109   0.319   0.810   2.811
 1257SOL    HW115110   0.412   0.846   2.816
 1257SOL    HW215111   0.313   0.725   2.863
 1258SOL     OW15112   0.339   0.509   2.868
 1258SOL    HW115113   0.287   0.426   2.851
 1258SOL    HW215114   0.416   0.514   2.804
 1259SOL     OW15115   1.138   0.380   3.540
 1259SOL    HW115116   1.093   0.443   3.604
 1259SOL    HW215117   1.231   0.411   3.523
 1260SOL     OW15118   1.160   0.207   3.339
 1260SOL    HW115119   1.160   0.271   3.416
 1260SOL    HW215120   1.188   0.255   3.256
 1261SOL     OW15121   0.008   1.326   2.062
 1261SOL    HW115122  -0.085   1.347   2.031
 1261SOL    HW215123   0.018   1.227   2.075
 1262SOL     OW15124   0.088   1.801   2.789
 1262SOL    HW115125   0.046   1.715   2.762
 1262SOL    HW215126   0.182   1.804   2.755
 1263SOL     OW15127   0.504   1.568   2.772
 1263SOL    HW115128   0.570   1.642   2.781
 1263SOL    HW215129   0.548   1.489   2.730
 1264SOL     OW15130   1.002   0.796   3.100
 1264SOL    HW115131   1.043   0.764   3.186
 1264SOL    HW215132   0.906   0.769   3.097
 1265SOL     OW15133   0.040   0.544   2.976
 1265SOL    HW115134   0.125   0.511   2.935
 1265SOL    HW215135   0.053   0.559   3.074
 1266SOL     OW15136   0.189   0.520   3.584
 1266SOL    HW115137   0.248   0.480   3.514
 1266SOL    HW215138   0.131   0.591   3.543
 1267SOL     OW15139   1.369   0.950   3.522
 1267SOL    HW115140   1.408   1.039   3.542
 1267SOL    HW215141   1.379   0.930   3.425
 1268SOL     OW15142   0.815   0.572   2.187
 1268SOL    HW115143   0.822   0.483   2.141
 1268SOL    HW215144   0.721   0.606   2.179
 1269SOL     OW15145   1.657   0.604   3.068
 1269SOL    HW115146   1.619   0.535   3.130
 1269SOL    HW215147   1.739   0.568   3.024
 1270SOL     OW15148   0.252   1.564   3.606
 1270SOL    HW115149   0.222   1.621   3.682
 1270SOL    HW215150   0.245   1.467   3.632
 1271SOL     OW15151   0.671   0.464   3.131
 1271SOL    HW115152   0.637   0.375   3.101
 1271SOL    HW215153   0.697   0.518   3.051
 1272SOL     OW15154   0.930   1.678   3.327
 1272SOL    HW115155   0.906   1.660   3.232
 1272SOL    HW215156   0.960   1.772   3.337
 1273SOL     OW15157   0.473   0.500   2.053
 1273SOL    HW115158   0.534   0.580   2.057
 1273SOL    HW215159   0.378   0.531   2.060
 1274SOL     OW15160   0.159   1.137   3.328
 1274SOL    HW115161   0.181   1.076   3.404
 1274SOL    HW215162   0.169   1.088   3.242
 1275SOL     OW15163   1.347   1.059   3.096
 1275SOL    HW115164   1.371   0.996   3.022
 1275SOL    HW215165   1.257   1.099   3.078
 1276SOL     OW15166   1.759   1.747   3.016
 1276SOL    HW115167   1.820   1.777   2.943
 1276SOL    HW215168   1.721   1.658   2.994
 1277SOL     OW15169   1.252   1.731   2.990
 1277SOL    HW115170   1.336   1.736   2.936
 1277SOL    HW215171   1.229   1.635   3.008
 1278SOL     OW15172   0.083   1.258   2.884
 1278SOL    HW115173   0.078   1.257   2.984
 1278SOL    HW215174   0.000   1.217   2.846
 1279SOL     OW15175   0.688   1.662   3.578
 1279SOL    HW115176   0.632   1.743   3.587
 1279SOL    HW215177   0.740   1.666   3.492
 1280SOL     OW15178   1.726   0.135   2.385
 1280SOL    HW115179   1.799   0.118   2.318
 1280SOL    HW215180   1.695   0.048   2.423
 1281SOL     OW15181   1.388   1.573   2.339
 1281SOL    HW115182   1.455   1.585   2.265
 1281SOL    HW215183   1.348   1.662   2.362
 1282SOL     OW15184   0.130   1.794   3.713
 1282SOL    HW115185   0.089   1.720   3.766
 1282SOL    HW215186   0.194   1.845   3.771
 1283SOL     OW15187   1.280   0.927   2.534
 1283SOL    HW115188   1.340   0.846   2.536
 1283SOL    HW215189   1.320   0.996   2.474
 1284SOL     OW15190   0.830   1.273   3.284
 1284SOL    HW115191   0.825   1.306   3.379
 1284SOL    HW215192   0.744   1.292   3.238
 1285SOL     OW15193   0.672   1.616   2.016
 1285SOL    HW115194   0.681   1.626   1.917
 1285SOL    HW215195   0.632   1.527   2.037
 1286SOL     OW15196   1.650   1.720   3.256
 1286SOL    HW115197   1.703   1.730   3.172
 1286SOL    HW215198   1.623   1.810   3.290
 1287SOL     OW15199   1.841   0.175   2.825
 1287SOL    HW115200   1.880   0.090   2.789
 1287SOL    HW215201   1.743   0.177   2.806
 1288SOL     OW15202   0.263   0.326   2.582
 1288SOL    HW115203   0.184   0.377   2.548
 1288SOL    HW215204   0.254   0.311   2.680
 1289SOL     OW15205   1.194   1.612   1.893
 1289SOL    HW115206   1.200   1.519   1.930
 1289SOL    HW215207   1.135   1.612   1.813
 1290SOL     OW15208   0.822   1.002   3.234
 1290SOL    HW115209   0.862   1.001   3.142
 1290SOL    HW215210   0.832   1.094   3.274
 1291SOL     OW15211   0.916   0.910   2.153
 1291SOL    HW115212   0.979   0.948   2.085
 1291SOL    HW215213   0.956   0.827   2.192
 1292SOL     OW15214   1.504   1.607   1.906
 1292SOL    HW115215   1.412   1.644   1.913
 1292SOL    HW215216   1.542   1.627   1.816
 1293SOL     OW15217   0.372   1.288   3.352
 1293SOL    HW115218   0.359   1.381   3.318
 1293SOL    HW215219   0.288   1.236   3.339
 1294SOL     OW15220   1.614   1.292   3.151
 1294SOL    HW115221   1.674   1.295   3.231
 1294SOL    HW215222   1.539   1.356   3.164
 1295SOL     OW15223   1.039   1.098   2.558
 1295SOL    HW115224   0.969   1.051   2.612
 1295SOL    HW215225   1.098   1.030   2.515
 1296SOL     OW15226   1.014   0.236   2.833
 1296SOL    HW115227   1.006   0.200   2.740
 1296SOL    HW215228   1.012   0.160   2.898
 1297SOL     OW15229   0.590   1.487   2.353
 1297SOL    HW115230   0.632   1.429   2.283
 1297SOL    HW215231   0.546   1.566   2.309
 1298SOL     OW15232   1.709   0.385   3.243
 1298SOL    HW115233   1.782   0.454   3.247
 1298SOL    HW215234   1.737   0.310   3.184
 1299SOL     OW15235   0.255   1.348   2.152
 1299SOL    HW115236   0.159   1.349   2.125
 1299SOL    HW215237   0.267   1.401   2.236
 1300SOL     OW15238   0.105   1.013   3.588
 1300SOL    HW115239   0.028   0.980   3.642
 1300SOL    HW215240   0.190   0.983   3.630
 1301SOL     OW15241   0.672   0.203   3.351
 1301SOL    HW115242   0.762   0.187   3.311
 1301SOL    HW215243   0.680   0.208   3.450
 1302SOL     OW15244   0.075   0.345   1.895
 1302SOL    HW115245  -0.017   0.317   1.866
 1302SOL    HW215246   0.106   0.422   1.839
 1303SOL     OW15247   1.440   0.856   3.260
 1303SOL    HW115248   1.383   0.908   3.197
 1303SOL    HW215249   1.536   0.868   3.236
 1304SOL     OW15250   0.072   0.166   2.180
 1304SOL    HW115251   0.055   0.249   2.126
 1304SOL    HW215252   0.162   0.129   2.158
 1305SOL     OW15253   1.183   1.335   1.981
 1305SOL    HW115254   1.084   1.324   1.983
 1305SOL    HW215255   1.217   1.350   2.074
 1306SOL     OW15256   0.613   0.842   3.293
 1306SOL    HW115257   0.669   0.923   3.276
 1306SOL    HW215258   0.672   0.762   3.296
 1307SOL     OW15259   1.493   1.767   2.821
 1307SOL    HW115260   1.526   1.831   2.752
 1307SOL    HW215261   1.559   1.761   2.896
 1308SOL     OW15262   0.716   0.565   3.570
 1308SOL    HW115263   0.735   0.630   3.644
 1308SOL    HW215264   0.776   0.485   3.579
 1309SOL     OW15265   1.450   1.220   3.495
 1309SOL    HW115266   1.441   1.210   3.594
 1309SOL    HW215267   1.546   1.213   3.469
 1310SOL     OW15268   0.390   1.741   3.422
 1310SOL    HW115269   0.299   1.782   3.420
 1310SOL    HW215270   0.383   1.647   3.454
 1311SOL     OW15271   1.674   0.883   3.116
 1311SOL    HW115272   1.647   0.794   3.079
 1311SOL    HW215273   1.675   0.951   3.043
 1312SOL     OW15274   1.225   0.325   2.311
 1312SOL    HW115275   1.290   0.251   2.300
 1312SOL    HW215276   1.245   0.375   2.395
 1313SOL     OW15277   0.594   0.745   2.514
 1313SOL    HW115278   0.644   0.830   2.495
 1313SOL    HW215279   0.506   0.747   2.466
 1314SOL     OW15280   1.777   0.342   3.504
 1314SOL    HW115281   1.760   0.373   3.410
 1314SOL    HW215282   1.693   0.305   3.542
 1315SOL     OW15283   1.730   0.934   3.379
 1315SOL    HW115284   1.768   1.025   3.394
 1315SOL    HW215285   1.722   0.917   3.280
 1316SOL     OW15286   0.859   1.374   1.878
 1316SOL    HW115287   0.813   1.389   1.966
 1316SOL    HW215288   0.903   1.459   1.848
 1317SOL     OW15289   0.661   1.790   2.815
 1317SOL    HW115290   0.615   1.878   2.802
 1317SOL    HW215291   0.760   1.802   2.808
 1318SOL     OW15292   0.859   0.956   2.723
 1318SOL    HW115293   0.913   0.887   2.771
 1318SOL    HW215294   0.827   1.025   2.789
 1319SOL     OW15295   1.083   0.984   1.949
 1319SOL    HW115296   1.060   1.037   1.867
 1319SOL    HW215297   1.164   0.928   1.930
 1320SOL     OW15298   1.861   1.569   2.713
 1320SOL    HW115299   1.790   1.557   2.643
 1320SOL    HW215300   1.862   1.490   2.773
 1321SOL     OW15301   0.221   1.314   3.706
 1321SOL    HW115302   0.156   1.241   3.685
 1321SOL    HW215303   0.225   1.328   3.804
 1322SOL     OW15304   0.079   1.240   2.515
 1322SOL    HW115305   0.078   1.193   2.603
 1322SOL    HW215306   0.161   1.212   2.464
 1323SOL     OW15307   0.672   1.391   3.486
 1323SOL    HW115308   0.594   1.341   3.524
 1323SOL    HW215309   0.669   1.486   3.517
 1324SOL     OW15310   1.824   0.192   3.089
 1324SOL    HW115311   1.820   0.102   3.133
 1324SOL    HW215312   1.827   0.181   2.990
 1325SOL     OW15313   0.428   0.424   2.382
 1325SOL    HW115314   0.458   0.352   2.320
 1325SOL    HW215315   0.389   0.384   2.465
 1326SOL     OW15316   1.705   1.487   2.966
 1326SOL    HW115317   1.612   1.462   2.939
 1326SOL    HW215318   1.731   1.437   3.048
 1327SOL     OW15319   0.317   0.547   3.142
 1327SOL    HW115320   0.355   0.488   3.214
 1327SOL    HW215321   0.357   0.521   3.054
 1328SOL     OW15322   0.812   1.586   2.549
 1328SOL    HW115323   0.844   1.596   2.455
 1328SOL    HW215324   0.733   1.524   2.551
 1329SOL     OW15325   1.424   0.214   2.974
 1329SOL    HW115326   1.476   0.149   3.029
 1329SOL    HW215327   1.375   0.277   3.035
 1330SOL     OW15328   1.001   0.034   3.016
 1330SOL    HW115329   0.938  -0.038   2.985
 1330SOL    HW215330   1.094  -0.002   3.016
 1331SOL     OW15331   0.770   1.330   2.163
 1331SOL    HW115332   0.724   1.243   2.180
 1331SOL    HW215333   0.861   1.327   2.204
 1332SOL     OW15334   0.618   1.567   3.146
 1332SOL    HW115335   0.613   1.649   3.203
 1332SOL    HW215336   0.707   1.564   3.101
 1333SOL     OW15337   1.352   0.052   2.030
 1333SOL    HW115338   1.387   0.011   1.946
 1333SOL    HW215339   1.262   0.014   2.050
 1334SOL     OW15340   1.300   0.453   2.553
 1334SOL    HW115341   1.241   0.533   2.557
 1334SOL    HW215342   1.315   0.418   2.646
 1335SOL     OW15343   1.593   0.221   2.744
 1335SOL    HW115344   1.509   0.220   2.798
 1335SOL    HW215345   1.595   0.304   2.688
 1336SOL     OW15346   0.039   1.077   2.162
 1336SOL    HW115347   0.138   1.066   2.153
 1336SOL    HW215348  -0.001   0.991   2.194
 1337SOL     OW15349   0.875   1.646   2.199
 1337SOL    HW115350   0.798   1.611   2.145
 1337SOL    HW215351   0.843   1.717   2.261
 1338SOL     OW15352   0.230   0.628   3.837
 1338SOL    HW115353   0.137   0.626   3.874
 1338SOL    HW215354   0.231   0.589   3.745
 1339SOL     OW15355   0.225   0.275   4.720
 1339SOL    HW115356   0.260   0.258   4.812
 1339SOL    HW215357   0.137   0.230   4.708
 1340SOL     OW15358   0.019   0.368   4.371
 1340SOL    HW115359  -0.063   0.411   4.410
 1340SOL    HW215360  -0.009   0.295   4.308
 1341SOL     OW15361   0.569   1.275   4.889
 1341SOL    HW115362   0.476   1.268   4.852
 1341SOL    HW215363   0.580   1.364   4.933
 1342SOL     OW15364   1.555   1.511   4.427
 1342SOL    HW115365   1.498   1.495   4.508
 1342SOL    HW215366   1.496   1.521   4.347
 1343SOL     OW15367   1.135   0.703   4.441
 1343SOL    HW115368   1.192   0.781   4.416
 1343SOL    HW215369   1.075   0.729   4.517
 1344SOL     OW15370   1.755   0.607   3.955
 1344SOL    HW115371   1.743   0.594   3.856
 1344SOL    HW215372   1.725   0.526   4.004
 1345SOL     OW15373   0.768   1.144   4.747
 1345SOL    HW115374   0.690   1.161   4.807
 1345SOL    HW215375   0.802   1.231   4.711
 1346SOL     OW15376   0.850   0.798   5.547
 1346SOL    HW115377   0.846   0.874   5.612
 1346SOL    HW215378   0.872   0.834   5.456
 1347SOL     OW15379   0.685   1.012   4.389
 1347SOL    HW115380   0.754   0.996   4.459
 1347SOL    HW215381   0.612   1.069   4.427
 1348SOL     OW15382   0.686   1.161   5.527
 1348SOL    HW115383   0.746   1.240   5.541
 1348SOL    HW215384   0.600   1.192   5.486
 1349SOL     OW15385   0.335   1.435   4.785
 1349SOL    HW115386   0.257   1.404   4.732
 1349SOL    HW215387   0.393   1.493   4.728
 1350SOL     OW15388   1.460   1.505   5.063
 1350SOL    HW115389   1.484   1.599   5.089
 1350SOL    HW215390   1.444   1.451   5.145
 1351SOL     OW15391   0.438   0.392   5.223
 1351SOL    HW115392   0.520   0.336   5.232
 1351SOL    HW215393   0.357   0.334   5.227
 1352SOL     OW15394   1.603   0.447   4.461
 1352SOL    HW115395   1.529   0.493   4.411
 1352SOL    HW215396   1.654   0.515   4.514
 1353SOL     OW15397   0.231   1.713   4.207
 1353SOL    HW115398   0.265   1.790   4.261
 1353SOL    HW215399   0.275   1.713   4.117
 1354SOL     OW15400   1.127   1.341   5.414
 1354SOL    HW115401   1.174   1.341   5.502
 1354SOL    HW215402   1.079   1.254   5.403
 1355SOL     OW15403   0.230   1.434   4.262
 1355SOL    HW115404   0.204   1.530   4.262
 1355SOL    HW215405   0.159   1.380   4.307
 1356SOL     OW15406   0.240   1.091   4.610
 1356SOL    HW115407   0.254   1.007   4.662
 1356SOL    HW215408   0.185   1.155   4.665
 1357SOL     OW15409   0.620   1.786   5.163
 1357SOL    HW115410   0.528   1.769   5.198
 1357SOL    HW215411   0.648   1.878   5.189
 1358SOL     OW15412   0.606   0.964   3.847
 1358SOL    HW115413   0.613   1.048   3.793
 1358SOL    HW215414   0.652   0.977   3.935
 1359SOL     OW15415   1.594   0.114   5.204
 1359SOL    HW115416   1.576   0.181   5.132
 1359SOL    HW215417   1.591   0.160   5.293
 1360SOL     OW15418   0.122   0.643   4.287
 1360SOL    HW115419   0.077   0.555   4.304
 1360SOL    HW215420   0.121   0.697   4.371
 1361SOL     OW15421   1.842   1.767   4.083
 1361SOL    HW115422   1.896   1.738   4.163
 1361SOL    HW215423   1.872   1.857   4.054
 1362SOL     OW15424   0.027   1.596   3.841
 1362SOL    HW115425   0.008   1.500   3.862
 1362SOL    HW215426  -0.006   1.654   3.916
 1363SOL     OW15427   1.689   0.922   4.336
 1363SOL    HW115428   1.784   0.893   4.344
 1363SOL    HW215429   1.681   0.987   4.261
 1364SOL     OW15430   1.641   1.108   4.156
 1364SOL    HW115431   1.727   1.110   4.104
 1364SOL    HW215432   1.655   1.155   4.244
 1365SOL     OW15433   0.113   0.737   5.321
 1365SOL    HW115434   0.201   0.724   5.366
 1365SOL    HW215435   0.100   0.834   5.299
 1366SOL     OW15436   0.613   1.365   4.450
 1366SOL    HW115437   0.564   1.278   4.459
 1366SOL    HW215438   0.590   1.408   4.363
 1367SOL     OW15439   1.293   1.228   5.147
 1367SOL    HW115440   1.330   1.155   5.089
 1367SOL    HW215441   1.345   1.233   5.232
 1368SOL     OW15442   0.809   0.004   4.226
 1368SOL    HW115443   0.849   0.095   4.217
 1368SOL    HW215444   0.709   0.012   4.232
 1369SOL     OW15445   0.197   0.976   4.988
 1369SOL    HW115446   0.286   0.931   4.974
 1369SOL    HW215447   0.124   0.911   4.969
 1370SOL     OW15448   1.525   0.999   3.914
 1370SOL    HW115449   1.462   0.923   3.927
 1370SOL    HW215450   1.573   1.017   4.000
 1371SOL     OW15451   1.187   1.792   5.340
 1371SOL    HW115452   1.211   1.852   5.264
 1371SOL    HW215453   1.194   1.697   5.310
 1372SOL     OW15454   0.317   0.251   5.525
 1372SOL    HW115455   0.388   0.322   5.531
 1372SOL    HW215456   0.229   0.290   5.553
 1373SOL     OW15457   1.466   1.417   4.677
 1373SOL    HW115458   1.407   1.423   4.757
 1373SOL    HW215459   1.451   1.329   4.631
 1374SOL     OW15460   1.667   1.714   4.296
 1374SOL    HW115461   1.626   1.691   4.208
 1374SOL    HW215462   1.649   1.640   4.361
 1375SOL     OW15463   0.598   0.729   3.994
 1375SOL    HW115464   0.622   0.798   3.926
 1375SOL    HW215465   0.520   0.762   4.048
 1376SOL     OW15466   1.281   0.345   4.668
 1376SOL    HW115467   1.195   0.295   4.655
 1376SOL    HW215468   1.343   0.291   4.724
 1377SOL     OW15469   1.576   1.662   4.031
 1377SOL    HW115470   1.665   1.708   4.034
 1377SOL    HW215471   1.555   1.638   3.936
 1378SOL     OW15472   0.807   0.605   5.189
 1378SOL    HW115473   0.760   0.602   5.278
 1378SOL    HW215474   0.756   0.550   5.123
 1379SOL     OW15475   1.394   0.469   5.398
 1379SOL    HW115476   1.374   0.512   5.486
 1379SOL    HW215477   1.472   0.407   5.407
 1380SOL     OW15478   0.973   0.890   5.296
 1380SOL    HW115479   1.019   0.806   5.267
 1380SOL    HW215480   0.917   0.924   5.221
 1381SOL     OW15481   0.991   0.410   4.966
 1381SOL    HW115482   0.914   0.444   5.020
 1381SOL    HW215483   0.957   0.359   4.887
 1382SOL     OW15484   1.041   0.701   4.153
 1382SOL    HW115485   1.067   0.697   4.249
 1382SOL    HW215486   0.956   0.650   4.139
 1383SOL     OW15487   0.076   0.811   4.513
 1383SOL    HW115488   0.175   0.799   4.522
 1383SOL    HW215489   0.052   0.906   4.534
 1384SOL     OW15490   0.130   1.821   5.295
 1384SOL    HW115491   0.120   1.806   5.394
 1384SOL    HW215492   0.044   1.857   5.259
 1385SOL     OW15493   0.865   0.348   3.919
 1385SOL    HW115494   0.924   0.411   3.870
 1385SOL    HW215495   0.884   0.254   3.890
 1386SOL     OW15496   1.719   0.585   5.555
 1386SOL    HW115497   1.693   0.674   5.519
 1386SOL    HW215498   1.717   0.517   5.482
 1387SOL     OW15499   1.362   1.144   4.269
 1387SOL    HW115500   1.445   1.115   4.221
 1387SOL    HW215501   1.313   1.211   4.213
 1388SOL     OW15502   0.550   0.196   4.609
 1388SOL    HW115503   0.545   0.191   4.709
 1388SOL    HW215504   0.552   0.292   4.580
 1389SOL     OW15505   1.008   1.456   4.201
 1389SOL    HW115506   0.962   1.528   4.149
 1389SOL    HW215507   1.004   1.476   4.299
 1390SOL     OW15508   0.351   1.801   4.577
 1390SOL    HW115509   0.401   1.715   4.583
 1390SOL    HW215510   0.416   1.878   4.574
 1391SOL     OW15511   1.795   1.066   4.597
 1391SOL    HW115512   1.733   1.051   4.521
 1391SOL    HW215513   1.743   1.077   4.682
 1392SOL     OW15514   1.227   1.550   5.230
 1392SOL    HW115515   1.233   1.473   5.294
 1392SOL    HW215516   1.175   1.524   5.150
 1393SOL     OW15517   0.321   0.943   3.966
 1393SOL    HW115518   0.403   0.982   3.924
 1393SOL    HW215519   0.294   0.861   3.917
 1394SOL     OW15520   1.458   0.735   4.452
 1394SOL    HW115521   1.453   0.670   4.527
 1394SOL    HW215522   1.538   0.794   4.465
 1395SOL     OW15523   0.461   1.266   5.451
 1395SOL    HW115524   0.411   1.267   5.365
 1395SOL    HW215525   0.398   1.248   5.527
 1396SOL     OW15526   1.111   1.776   3.961
 1396SOL    HW115527   1.051   1.714   4.011
 1396SOL    HW215528   1.142   1.732   3.876
 1397SOL     OW15529   0.202   0.285   5.222
 1397SOL    HW115530   0.122   0.345   5.209
 1397SOL    HW215531   0.192   0.236   5.308
 1398SOL     OW15532   1.632   1.377   3.805
 1398SOL    HW115533   1.600   1.471   3.795
 1398SOL    HW215534   1.556   1.314   3.793
 1399SOL     OW15535   0.464   1.743   4.047
 1399SOL    HW115536   0.497   1.782   4.133
 1399SOL    HW215537   0.540   1.736   3.982
 1400SOL     OW15538   1.400   0.107   4.150
 1400SOL    HW115539   1.376   0.070   4.060
 1400SOL    HW215540   1.499   0.123   4.154
 1401SOL     OW15541   0.249   1.785   4.965
 1401SOL    HW115542   0.306   1.720   5.015
 1401SOL    HW215543   0.233   1.752   4.872
 1402SOL     OW15544   0.940   1.698   4.628
 1402SOL    HW115545   1.020   1.641   4.649
 1402SOL    HW215546   0.891   1.658   4.551
 1403SOL     OW15547   0.382   0.700   4.204
 1403SOL    HW115548   0.427   0.610   4.201
 1403SOL    HW215549   0.288   0.689   4.237
 1404SOL     OW15550   1.547   0.222   5.453
 1404SOL    HW115551   1.542   0.259   5.545
 1404SOL    HW215552   1.475   0.153   5.441
 1405SOL     OW15553   0.614   0.122   3.841
 1405SOL    HW115554   0.712   0.100   3.848
 1405SOL    HW215555   0.583   0.105   3.748
 1406SOL     OW15556   0.781   0.264   5.473
 1406SOL    HW115557   0.848   0.203   5.516
 1406SOL    HW215558   0.708   0.283   5.538
 1407SOL     OW15559   0.888   1.514   4.919
 1407SOL    HW115560   0.865   1.489   4.825
 1407SOL    HW215561   0.949   1.445   4.958
 1408SOL     OW15562   1.351   0.590   5.157
 1408SOL    HW115563   1.379   0.547   5.242
 1408SOL    HW215564   1.376   0.686   5.158
 1409SOL     OW15565   0.803   1.402   4.648
 1409SOL    HW115566   0.893   1.416   4.606
 1409SOL    HW215567   0.732   1.404   4.577
 1410SOL     OW15568   0.922   0.503   4.623
 1410SOL    HW115569   0.897   0.494   4.527
 1410SOL    HW215570   0.970   0.421   4.654
 1411SOL     OW15571   0.539   0.064   4.236
 1411SOL    HW115572   0.458   0.065   4.294
 1411SOL    HW215573   0.542   0.147   4.181
 1412SOL     OW15574   1.434   1.188   3.765
 1412SOL    HW115575   1.466   1.112   3.822
 1412SOL    HW215576   1.342   1.215   3.795
 1413SOL     OW15577   0.297   0.035   3.895
 1413SOL    HW115578   0.346   0.119   3.874
 1413SOL    HW215579   0.359  -0.030   3.940
 1414SOL     OW15580   0.935   0.236   4.204
 1414SOL    HW115581   0.887   0.277   4.126
 1414SOL    HW215582   1.034   0.234   4.185
 1415SOL     OW15583   1.076   0.683   5.188
 1415SOL    HW115584   0.996   0.622   5.191
 1415SOL    HW215585   1.157   0.630   5.164
 1416SOL     OW15586   1.227   1.570   4.517
 1416SOL    HW115587   1.248   1.644   4.452
 1416SOL    HW215588   1.295   1.570   4.590
 1417SOL     OW15589   0.459   1.152   4.465
 1417SOL    HW115590   0.388   1.125   4.530
 1417SOL    HW215591   0.433   1.124   4.372
 1418SOL     OW15592   1.271   1.797   4.315
 1418SOL    HW115593   1.315   1.861   4.251
 1418SOL    HW215594   1.221   1.849   4.385
 1419SOL     OW15595   1.032   0.549   3.740
 1419SOL    HW115596   0.991   0.631   3.701
 1419SOL    HW215597   1.096   0.575   3.813
 1420SOL     OW15598   0.078   0.556   5.110
 1420SOL    HW115599   0.170   0.555   5.069
 1420SOL    HW215600   0.072   0.630   5.177
 1421SOL     OW15601   0.561   0.222   4.871
 1421SOL    HW115602   0.599   0.138   4.908
 1421SOL    HW215603   0.473   0.241   4.915
 1422SOL     OW15604   0.866   0.454   4.366
 1422SOL    HW115605   0.834   0.526   4.304
 1422SOL    HW215606   0.890   0.373   4.313
 1423SOL     OW15607   1.017   0.039   4.477
 1423SOL    HW115608   0.945   0.044   4.408
 1423SOL    HW215609   0.993  -0.030   4.546
 1424SOL     OW15610   1.429   1.173   4.591
 1424SOL    HW115611   1.374   1.089   4.584
 1424SOL    HW215612   1.455   1.202   4.499
 1425SOL     OW15613   1.857   0.833   4.101
 1425SOL    HW115614   1.899   0.769   4.165
 1425SOL    HW215615   1.819   0.782   4.023
 1426SOL     OW15616   0.488   1.385   3.898
 1426SOL    HW115617   0.401   1.370   3.945
 1426SOL    HW215618   0.471   1.411   3.803
 1427SOL     OW15619   1.664   1.280   4.381
 1427SOL    HW115620   1.763   1.288   4.395
 1427SOL    HW215621   1.619   1.364   4.412
 1428SOL     OW15622   1.390   0.575   3.802
 1428SOL    HW115623   1.336   0.554   3.883
 1428SOL    HW215624   1.481   0.534   3.811
 1429SOL     OW15625   0.527   0.256   4.052
 1429SOL    HW115626   0.554   0.197   3.977
 1429SOL    HW215627   0.527   0.351   4.021
 1430SOL     OW15628   1.754   1.223   5.312
 1430SOL    HW115629   1.845   1.184   5.299
 1430SOL    HW215630   1.762   1.319   5.336
 1431SOL     OW15631   1.064   1.347   5.064
 1431SOL    HW115632   0.984   1.324   5.119
 1431SOL    HW215633   1.147   1.321   5.113
 1432SOL     OW15634   1.592   1.629   5.349
 1432SOL    HW115635   1.619   1.663   5.259
 1432SOL    HW215636   1.671   1.591   5.395
 1433SOL     OW15637   1.111   1.195   4.824
 1433SOL    HW115638   1.071   1.239   4.905
 1433SOL    HW215639   1.070   1.232   4.741
 1434SOL     OW15640   1.638   1.099   4.803
 1434SOL    HW115641   1.643   1.180   4.862
 1434SOL    HW215642   1.552   1.101   4.752
 1435SOL     OW15643   0.915   0.089   5.126
 1435SOL    HW115644   0.940   0.069   5.031
 1435SOL    HW215645   0.987   0.145   5.168
 1436SOL     OW15646   0.980   1.116   5.443
 1436SOL    HW115647   0.881   1.122   5.453
 1436SOL    HW215648   1.003   1.036   5.387
 1437SOL     OW15649   0.705   1.050   4.092
 1437SOL    HW115650   0.691   1.057   4.191
 1437SOL    HW215651   0.789   0.999   4.074
 1438SOL     OW15652   0.410   0.813   4.975
 1438SOL    HW115653   0.496   0.825   5.025
 1438SOL    HW215654   0.368   0.726   5.002
 1439SOL     OW15655   1.274   0.386   4.986
 1439SOL    HW115656   1.295   0.460   5.050
 1439SOL    HW215657   1.185   0.403   4.943
 1440SOL     OW15658   0.064   1.564   5.055
 1440SOL    HW115659   0.018   1.646   5.021
 1440SOL    HW215660   0.162   1.583   5.064
 1441SOL     OW15661   0.367   1.100   4.225
 1441SOL    HW115662   0.360   1.183   4.169
 1441SOL    HW215663   0.371   1.020   4.165
 1442SOL     OW15664   0.566   0.537   4.589
 1442SOL    HW115665   0.578   0.603   4.515
 1442SOL    HW215666   0.612   0.571   4.672
 1443SOL     OW15667   1.252   1.348   4.112
 1443SOL    HW115668   1.302   1.425   4.152
 1443SOL    HW215669   1.157   1.350   4.144
 1444SOL     OW15670   1.272   1.445   4.866
 1444SOL    HW115671   1.319   1.458   4.953
 1444SOL    HW215672   1.206   1.371   4.875
 1445SOL     OW15673   1.582   0.639   4.196
 1445SOL    HW115674   1.551   0.700   4.269
 1445SOL    HW215675   1.632   0.691   4.127
 1446SOL     OW15676   0.354   1.510   5.053
 1446SOL    HW115677   0.333   1.466   4.966
 1446SOL    HW215678   0.451   1.536   5.056
 1447SOL     OW15679   0.402   0.751   5.322
 1447SOL    HW115680   0.470   0.806   5.275
 1447SOL    HW215681   0.442   0.663   5.349
 1448SOL     OW15682   1.587   0.779   5.394
 1448SOL    HW115683   1.495   0.817   5.389
 1448SOL    HW215684   1.647   0.826   5.329
 1449SOL     OW15685   1.013   0.105   5.494
 1449SOL    HW115686   1.019   0.190   5.442
 1449SOL    HW215687   1.045   0.029   5.437
 1450SOL     OW15688   0.504   0.050   5.464
 1450SOL    HW115689   0.462  -0.007   5.394
 1450SOL    HW215690   0.438   0.119   5.496
 1451SOL     OW15691   0.573   0.870   4.753
 1451SOL    HW115692   0.617   0.959   4.744
 1451SOL    HW215693   0.510   0.870   4.830
 1452SOL     OW15694   1.360   0.862   4.769
 1452SOL    HW115695   1.285   0.862   4.703
 1452SOL    HW215696   1.397   0.770   4.778
 1453SOL     OW15697   1.209   0.525   3.999
 1453SOL    HW115698   1.222   0.441   4.053
 1453SOL    HW215699   1.180   0.599   4.059
 1454SOL     OW15700   0.307   0.213   4.955
 1454SOL    HW115701   0.284   0.250   5.045
 1454SOL    HW215702   0.277   0.118   4.949
 1455SOL     OW15703   0.037   1.310   5.006
 1455SOL    HW115704   0.090   1.261   5.074
 1455SOL    HW215705   0.059   1.408   5.011
 1456SOL     OW15706   0.732   0.634   4.788
 1456SOL    HW115707   0.791   0.608   4.712
 1456SOL    HW215708   0.704   0.730   4.777
 1457SOL     OW15709   1.728   0.935   5.578
 1457SOL    HW115710   1.682   0.928   5.489
 1457SOL    HW215711   1.666   0.979   5.644
 1458SOL     OW15712   0.307   0.063   4.342
 1458SOL    HW115713   0.296   0.157   4.375
 1458SOL    HW215714   0.302   0.000   4.419
 1459SOL     OW15715   1.622   0.367   4.098
 1459SOL    HW115716   1.624   0.291   4.162
 1459SOL    HW215717   1.574   0.444   4.138
 1460SOL     OW15718   1.023   0.766   4.690
 1460SOL    HW115719   1.038   0.787   4.786
 1460SOL    HW215720   0.993   0.671   4.681
 1461SOL     OW15721   0.980   1.573   5.424
 1461SOL    HW115722   0.960   1.617   5.336
 1461SOL    HW215723   1.019   1.482   5.408
 1462SOL     OW15724   1.859   1.518   5.329
 1462SOL    HW115725   1.873   1.545   5.234
 1462SOL    HW215726   1.942   1.540   5.382
 1463SOL     OW15727   0.350   0.898   5.528
 1463SOL    HW115728   0.426   0.942   5.576
 1463SOL    HW215729   0.385   0.851   5.446
 1464SOL     OW15730   1.540   0.274   3.849
 1464SOL    HW115731   1.479   0.199   3.872
 1464SOL    HW215732   1.562   0.326   3.932
 1465SOL     OW15733   1.303   0.838   3.766
 1465SOL    HW115734   1.337   0.745   3.781
 1465SOL    HW215735   1.321   0.865   3.671
 1466SOL     OW15736   1.068   1.333   4.573
 1466SOL    HW115737   1.075   1.249   4.518
 1466SOL    HW215738   1.130   1.402   4.537
 1467SOL     OW15739   0.319   0.810   4.673
 1467SOL    HW115740   0.412   0.846   4.678
 1467SOL    HW215741   0.313   0.725   4.725
 1468SOL     OW15742   0.339   0.509   4.730
 1468SOL    HW115743   0.287   0.426   4.713
 1468SOL    HW215744   0.416   0.514   4.666
 1469SOL     OW15745   1.138   0.380   5.402
 1469SOL    HW115746   1.093   0.443   5.466
 1469SOL    HW215747   1.231   0.411   5.385
 1470SOL     OW15748   1.160   0.207   5.201
 1470SOL    HW115749   1.160   0.271   5.278
 1470SOL    HW215750   1.188   0.255   5.118
 1471SOL     OW15751   0.008   1.326   3.924
 1471SOL    HW115752  -0.085   1.347   3.893
 1471SOL    HW215753   0.018   1.227   3.937
 1472SOL     OW15754   0.088   1.801   4.651
 1472SOL    HW115755   0.046   1.715   4.624
 1472SOL    HW215756   0.182   1.804   4.617
 1473SOL     OW15757   0.504   1.568   4.634
 1473SOL    HW115758   0.570   1.642   4.643
 1473SOL    HW215759   0.548   1.489   4.592
 1474SOL     OW15760   1.002   0.796   4.962
 1474SOL    HW115761   1.043   0.764   5.048
 1474SOL    HW215762   0.906   0.769   4.959
 1475SOL     OW15763   0.040   0.544   4.838
 1475SOL    HW115764   0.125   0.511   4.797
 1475SOL    HW215765   0.053   0.559   4.936
 1476SOL     OW15766   0.189   0.520   5.446
 1476SOL    HW115767   0.248   0.480   5.376
 1476SOL    HW215768   0.131   0.591   5.405
 1477SOL     OW15769   1.369   0.950   5.384
 1477SOL    HW115770   1.408   1.039   5.404
 1477SOL    HW215771   1.379   0.930   5.287
 1478SOL     OW15772   0.815   0.572   4.049
 1478SOL    HW115773   0.822   0.483   4.003
 1478SOL    HW215774   0.721   0.606   4.041
 1479SOL     OW15775   1.657   0.604   4.930
 1479SOL    HW115776   1.619   0.535   4.992
 1479SOL    HW215777   1.739   0.568   4.886
 1480SOL     OW15778   0.252   1.564   5.468
 1480SOL    HW115779   0.222   1.621   5.544
 1480SOL    HW215780   0.245   1.467   5.494
 1481SOL     OW15781   0.671   0.464   4.993
 1481SOL    HW115782   0.637   0.375   4.963
 1481SOL    HW215783   0.697   0.518   4.913
 1482SOL     OW15784   0.930   1.678   5.189
 1482SOL    HW115785   0.906   1.660   5.094
 1482SOL    HW215786   0.960   1.772   5.199
 1483SOL     OW15787   0.473   0.500   3.915
 1483SOL    HW115788   0.534   0.580   3.919
 1483SOL    HW215789   0.378   0.531   3.922
 1484SOL     OW15790   0.159   1.137   5.190
 1484SOL    HW115791   0.181   1.076   5.266
 1484SOL    HW215792   0.169   1.088   5.104
 1485SOL     OW15793   1.347   1.059   4.958
 1485SOL    HW115794   1.371   0.996   4.884
 1485SOL    HW215795   1.257   1.099   4.940
 1486SOL     OW15796   1.302   0.855   4.033
 1486SOL    HW115797   1.216   0.824   4.075
 1486SOL    HW215798   1.298   0.841   3.934
 1487SOL     OW15799   1.759   1.747   4.878
 1487SOL    HW115800   1.820   1.777   4.805
 1487SOL    HW215801   1.721   1.658   4.856
 1488SOL     OW15802   1.252   1.731   4.852
 1488SOL    HW115803   1.336   1.736   4.798
 1488SOL    HW215804   1.229   1.635   4.870
 1489SOL     OW15805   0.083   1.258   4.746
 1489SOL    HW115806   0.078   1.257   4.846
 1489SOL    HW215807   0.000   1.217   4.708
 1490SOL     OW15808   0.688   1.662   5.440
 1490SOL    HW115809   0.632   1.743   5.449
 1490SOL    HW215810   0.740   1.666   5.354
 1491SOL     OW15811   1.726   0.135   4.247
 1491SOL    HW115812   1.799   0.118   4.180
 1491SOL    HW215813   1.695   0.048   4.285
 1492SOL     OW15814   1.388   1.573   4.201
 1492SOL    HW115815   1.455   1.585   4.127
 1492SOL    HW215816   1.348   1.662   4.224
 1493SOL     OW15817   0.130   1.794   5.575
 1493SOL    HW115818   0.089   1.720   5.628
 1493SOL    HW215819   0.194   1.845   5.633
 1494SOL     OW15820   1.280   0.927   4.396
 1494SOL    HW115821   1.340   0.846   4.398
 1494SOL    HW215822   1.320   0.996   4.336
 1495SOL     OW15823   0.672   1.616   3.878
 1495SOL    HW115824   0.681   1.626   3.779
 1495SOL    HW215825   0.632   1.527   3.899
 1496SOL     OW15826   1.650   1.720   5.118
 1496SOL    HW115827   1.703   1.730   5.034
 1496SOL    HW215828   1.623   1.810   5.152
 1497SOL     OW15829   1.841   0.175   4.687
 1497SOL    HW115830   1.880   0.090   4.651
 1497SOL    HW215831   1.743   0.177   4.668
 1498SOL     OW15832   0.263   0.326   4.444
 1498SOL    HW115833   0.184   0.377   4.410
 1498SOL    HW215834   0.254   0.311   4.542
 1499SOL     OW15835   1.194   1.612   3.755
 1499SOL    HW115836   1.200   1.519   3.792
 1499SOL    HW215837   1.135   1.612   3.675
 1500SOL     OW15838   0.822   1.002   5.096
 1500SOL    HW115839   0.862   1.001   5.004
 1500SOL    HW215840   0.832   1.094   5.136
 1501SOL     OW15841   0.916   0.910   4.015
 1501SOL    HW115842   0.979   0.948   3.947
 1501SOL    HW215843   0.956   0.827   4.054
 1502SOL     OW15844   1.504   1.607   3.768
 1502SOL    HW115845   1.412   1.644   3.775
 1502SOL    HW215846   1.542   1.627   3.678
 1503SOL     OW15847   0.372   1.288   5.214
 1503SOL    HW115848   0.359   1.381   5.180
 1503SOL    HW215849   0.288   1.236   5.201
 1504SOL     OW15850   1.614   1.292   5.013
 1504SOL    HW115851   1.674   1.295   5.093
 1504SOL    HW215852   1.539   1.356   5.026
 1505SOL     OW15853   1.039   1.098   4.420
 1505SOL    HW115854   0.969   1.051   4.474
 1505SOL    HW215855   1.098   1.030   4.377
 1506SOL     OW15856   1.014   0.236   4.695
 1506SOL    HW115857   1.006   0.200   4.602
 1506SOL    HW215858   1.012   0.160   4.760
 1507SOL     OW15859   0.590   1.487   4.215
 1507SOL    HW115860   0.632   1.429   4.145
 1507SOL    HW215861   0.546   1.566   4.171
 1508SOL     OW15862   1.709   0.385   5.105
 1508SOL    HW115863   1.782   0.454   5.109
 1508SOL    HW215864   1.737   0.310   5.046
 1509SOL     OW15865   0.255   1.348   4.014
 1509SOL    HW115866   0.159   1.349   3.987
 1509SOL    HW215867   0.267   1.401   4.098
 1510SOL     OW15868   0.105   1.013   5.450
 1510SOL    HW115869   0.028   0.980   5.504
 1510SOL    HW215870   0.190   0.983   5.492
 1511SOL     OW15871   0.672   0.203   5.213
 1511SOL    HW115872   0.762   0.187   5.173
 1511SOL    HW215873   0.680   0.208   5.312
 1512SOL     OW15874   0.075   0.345   3.757
 1512SOL    HW115875  -0.017   0.317   3.728
 1512SOL    HW215876   0.106   0.422   3.701
 1513SOL     OW15877   1.440   0.856   5.122
 1513SOL    HW115878   1.383   0.908   5.059
 1513SOL    HW215879   1.536   0.868   5.098
 1514SOL     OW15880   0.072   0.166   4.042
 1514SOL    HW115881   0.055   0.249   3.988
 1514SOL    HW215882   0.162   0.129   4.020
 1515SOL     OW15883   1.183   1.335   3.843
 1515SOL    HW115884   1.084   1.324   3.845
 1515SOL    HW215885   1.217   1.350   3.936
 1516SOL     OW15886   0.613   0.842   5.155
 1516SOL    HW115887   0.669   0.923   5.138
 1516SOL    HW215888   0.672   0.762   5.158
 1517SOL     OW15889   1.493   1.767   4.683
 1517SOL    HW115890   1.526   1.831   4.614
 1517SOL    HW215891   1.559   1.761   4.758
 1518SOL     OW15892   0.716   0.565   5.432
 1518SOL    HW115893   0.735   0.630   5.506
 1518SOL    HW215894   0.776   0.485   5.441
 1519SOL     OW15895   1.450   1.220   5.357
 1519SOL    HW115896   1.441   1.210   5.456
 1519SOL    HW215897   1.546   1.213   5.331
 1520SOL     OW15898   0.390   1.741   5.284
 1520SOL    HW115899   0.299   1.782   5.282
 1520SOL    HW215900   0.383   1.647   5.316
 1521SOL     OW15901   1.674   0.883   4.978
 1521SOL    HW115902   1.647   0.794   4.941
 1521SOL    HW215903   1.675   0.951   4.905
 1522SOL     OW15904   1.225   0.325   4.173
 1522SOL    HW115905   1.290   0.251   4.162
 1522SOL    HW215906   1.245   0.375   4.257
 1523SOL     OW15907   0.594   0.745   4.376
 1523SOL    HW115908   0.644   0.830   4.357
 1523SOL    HW215909   0.506   0.747   4.328
 1524SOL     OW15910   1.777   0.342   5.366
 1524SOL    HW115911   1.760   0.373   5.272
 1524SOL    HW215912   1.693   0.305   5.404
 1525SOL     OW15913   1.730   0.934   5.241
 1525SOL    HW115914   1.768   1.025   5.256
 1525SOL    HW215915   1.722   0.917   5.142
 1526SOL     OW15916   0.859   1.374   3.740
 1526SOL    HW115917   0.813   1.389   3.828
 1526SOL    HW215918   0.903   1.459   3.710
 1527SOL     OW15919   0.661   1.790   4.677
 1527SOL    HW115920   0.615   1.878   4.664
 1527SOL    HW215921   0.760   1.802   4.670
 1528SOL     OW15922   0.859   0.956   4.585
 1528SOL    HW115923   0.913   0.887   4.633
 1528SOL    HW215924   0.827   1.025   4.651
 1529SOL     OW15925   1.083   0.984   3.811
 1529SOL    HW115926   1.060   1.037   3.729
 1529SOL    HW215927   1.164   0.928   3.792
 1530SOL     OW15928   1.861   1.569   4.575
 1530SOL    HW115929   1.790   1.557   4.505
 1530SOL    HW215930   1.862   1.490   4.635
 1531SOL     OW15931   0.221   1.314   5.568
 1531SOL    HW115932   0.156   1.241   5.547
 1531SOL    HW215933   0.225   1.328   5.666
 1532SOL     OW15934   0.079   1.240   4.377
 1532SOL    HW115935   0.078   1.193   4.465
 1532SOL    HW215936   0.161   1.212   4.326
 1533SOL     OW15937   1.824   0.192   4.951
 1533SOL    HW115938   1.820   0.102   4.995
 1533SOL    HW215939   1.827   0.181   4.852
 1534SOL     OW15940   0.428   0.424   4.244
 1534SOL    HW115941   0.458   0.352   4.182
 1534SOL    HW215942   0.389   0.384   4.327
 1535SOL     OW15943   1.705   1.487   4.828
 1535SOL    HW115944   1.612   1.462   4.801
 1535SOL    HW215945   1.731   1.437   4.910
 1536SOL     OW15946   0.317   0.547   5.004
 1536SOL    HW115947   0.355   0.488   5.076
 1536SOL    HW215948   0.357   0.521   4.916
 1537SOL     OW15949   0.812   1.586   4.411
 1537SOL    HW115950   0.844   1.596   4.317
 1537SOL    HW215951   0.733   1.524   4.413
 1538SOL     OW15952   1.424   0.214   4.836
 1538SOL    HW115953   1.476   0.149   4.891
 1538SOL    HW215954   1.375   0.277   4.897
 1539SOL     OW15955   1.001   0.034   4.878
 1539SOL    HW115956   0.938  -0.038   4.847
 1539SOL    HW215957   1.094  -0.002   4.878
 1540SOL     OW15958   0.770   1.330   4.025
 1540SOL    HW115959   0.724   1.243   4.042
 1540SOL    HW215960   0.861   1.327   4.066
 1541SOL     OW15961   0.618   1.567   5.008
 1541SOL    HW115962   0.613   1.649   5.065
 1541SOL    HW215963   0.707   1.564   4.963
 1542SOL     OW15964   1.352   0.052   3.892
 1542SOL    HW115965   1.387   0.011   3.808
 1542SOL    HW215966   1.262   0.014   3.912
 1543SOL     OW15967   1.300   0.453   4.415
 1543SOL    HW115968   1.241   0.533   4.419
 1543SOL    HW215969   1.315   0.418   4.508
 1544SOL     OW15970   1.593   0.221   4.606
 1544SOL    HW115971   1.509   0.220   4.660
 1544SOL    HW215972   1.595   0.304   4.550
 1545SOL     OW15973   0.039   1.077   4.024
 1545SOL    HW115974   0.138   1.066   4.015
 1545SOL    HW215975  -0.001   0.991   4.056
 1546SOL     OW15976   0.875   1.646   4.061
 1546SOL    HW115977   0.798   1.611   4.007
 1546SOL    HW215978   0.843   1.717   4.123
 1547SOL     OW15979   0.230   0.628   5.699
 1547SOL    HW115980   0.137   0.626   5.736
 1547SOL    HW215981   0.231   0.589   5.607
 1548SOL     OW15982   0.225   0.275   6.582
 1548SOL    HW115983   0.260   0.258   6.674
 1548SOL    HW215984   0.137   0.230   6.570
 1549SOL     OW15985   0.019   0.368   6.233
 1549SOL    HW115986  -0.063   0.411   6.272
 1549SOL    HW215987  -0.009   0.295   6.170
 1550SOL     OW15988   0.569   1.275   6.751
 1550SOL    HW115989   0.476   1.268   6.714
 1550SOL    HW215990   0.580   1.364   6.795
 1551SOL     OW15991   1.555   1.511   6.289
 1551SOL    HW115992   1.498   1.495   6.370
 1551SOL    HW215993   1.496   1.521   6.209
 1552SOL     OW15994   1.135   0.703   6.303
 1552SOL    HW115995   1.192   0.781   6.278
 1552SOL    HW215996   1.075   0.729   6.379
 1553SOL     OW15997   1.755   0.607   5.817
 1553SOL    HW115998   1.743   0.594   5.718
 1553SOL    HW215999   1.725   0.526   5.866
 1554SOL     OW16000   0.768   1.144   6.609
 1554SOL    HW116001   0.690   1.161   6.669
 1554SOL    HW216002   0.802   1.231   6.573
 1555SOL     OW16003   0.850   0.798   7.409
 1555SOL    HW116004   0.846   0.874   7.474
 1555SOL    HW216005   0.872   0.834   7.318
 1556SOL     OW16006   0.685   1.012   6.251
 1556SOL    HW116007   0.754   0.996   6.321
 1556SOL    HW216008   0.612   1.069   6.289
 1557SOL     OW16009   0.686   1.161   7.389
 1557SOL    HW116010   0.746   1.240   7.403
 1557SOL    HW216011   0.600   1.192   7.348
 1558SOL     OW16012   0.335   1.435   6.647
 1558SOL    HW116013   0.257   1.404   6.594
 1558SOL    HW216014   0.393   1.493   6.590
 1559SOL     OW16015   1.460   1.505   6.925
 1559SOL    HW116016   1.484   1.599   6.951
 1559SOL    HW216017   1.444   1.451   7.007
 1560SOL     OW16018   0.438   0.392   7.085
 1560SOL    HW116019   0.520   0.336   7.094
 1560SOL    HW216020   0.357   0.334   7.089
 1561SOL     OW16021   1.603   0.447   6.323
 1561SOL    HW116022   1.529   0.493   6.273
 1561SOL    HW216023   1.654   0.515   6.376
 1562SOL     OW16024   0.231   1.713   6.069
 1562SOL    HW116025   0.265   1.790   6.123
 1562SOL    HW216026   0.275   1.713   5.979
 1563SOL     OW16027   1.127   1.341   7.276
 1563SOL    HW116028   1.174   1.341   7.364
 1563SOL    HW216029   1.079   1.254   7.265
 1564SOL     OW16030   0.230   1.434   6.124
 1564SOL    HW116031   0.204   1.530   6.124
 1564SOL    HW216032   0.159   1.380   6.169
 1565SOL     OW16033   0.240   1.091   6.472
 1565SOL    HW116034   0.254   1.007   6.524
 1565SOL    HW216035   0.185   1.155   6.527
 1566SOL     OW16036   0.620   1.786   7.025
 1566SOL    HW116037   0.528   1.769   7.060
 1566SOL    HW216038   0.648   1.878   7.051
 1567SOL     OW16039   0.606   0.964   5.709
 1567SOL    HW116040   0.613   1.048   5.655
 1567SOL    HW216041   0.652   0.977   5.797
 1568SOL     OW16042   1.594   0.114   7.066
 1568SOL    HW116043   1.576   0.181   6.994
 1568SOL    HW216044   1.591   0.160   7.155
 1569SOL     OW16045   0.122   0.643   6.149
 1569SOL    HW116046   0.077   0.555   6.166
 1569SOL    HW216047   0.121   0.697   6.233
 1570SOL     OW16048   1.842   1.767   5.945
 1570SOL    HW116049   1.896   1.738   6.025
 1570SOL    HW216050   1.872   1.857   5.916
 1571SOL     OW16051   0.027   1.596   5.703
 1571SOL    HW116052   0.008   1.500   5.724
 1571SOL    HW216053  -0.006   1.654   5.778
 1572SOL     OW16054   1.641   1.108   6.018
 1572SOL    HW116055   1.727   1.110   5.966
 1572SOL    HW216056   1.655   1.155   6.106
 1573SOL     OW16057   0.113   0.737   7.183
 1573SOL    HW116058   0.201   0.724   7.228
 1573SOL    HW216059   0.100   0.834   7.161
 1574SOL     OW16060   0.613   1.365   6.312
 1574SOL    HW116061   0.564   1.278   6.321
 1574SOL    HW216062   0.590   1.408   6.225
 1575SOL     OW16063   1.293   1.228   7.009
 1575SOL    HW116064   1.330   1.155   6.951
 1575SOL    HW216065   1.345   1.233   7.094
 1576SOL     OW16066   0.809   0.004   6.088
 1576SOL    HW116067   0.849   0.095   6.079
 1576SOL    HW216068   0.709   0.012   6.094
 1577SOL     OW16069   0.197   0.976   6.850
 1577SOL    HW116070   0.286   0.931   6.836
 1577SOL    HW216071   0.124   0.911   6.831
 1578SOL     OW16072   1.525   0.999   5.776
 1578SOL    HW116073   1.462   0.923   5.789
 1578SOL    HW216074   1.573   1.017   5.862
 1579SOL     OW16075   1.187   1.792   7.202
 1579SOL    HW116076   1.211   1.852   7.126
 1579SOL    HW216077   1.194   1.697   7.172
 1580SOL     OW16078   0.317   0.251   7.387
 1580SOL    HW116079   0.388   0.322   7.393
 1580SOL    HW216080   0.229   0.290   7.415
 1581SOL     OW16081   1.466   1.417   6.539
 1581SOL    HW116082   1.407   1.423   6.619
 1581SOL    HW216083   1.451   1.329   6.493
 1582SOL     OW16084   1.667   1.714   6.158
 1582SOL    HW116085   1.626   1.691   6.070
 1582SOL    HW216086   1.649   1.640   6.223
 1583SOL     OW16087   0.598   0.729   5.856
 1583SOL    HW116088   0.622   0.798   5.788
 1583SOL    HW216089   0.520   0.762   5.910
 1584SOL     OW16090   1.281   0.345   6.530
 1584SOL    HW116091   1.195   0.295   6.517
 1584SOL    HW216092   1.343   0.291   6.586
 1585SOL     OW16093   1.576   1.662   5.893
 1585SOL    HW116094   1.665   1.708   5.896
 1585SOL    HW216095   1.555   1.638   5.798
 1586SOL     OW16096   0.807   0.605   7.051
 1586SOL    HW116097   0.760   0.602   7.140
 1586SOL    HW216098   0.756   0.550   6.985
 1587SOL     OW16099   1.394   0.469   7.260
 1587SOL    HW116100   1.374   0.512   7.348
 1587SOL    HW216101   1.472   0.407   7.269
 1588SOL     OW16102   0.973   0.890   7.158
 1588SOL    HW116103   1.019   0.806   7.129
 1588SOL    HW216104   0.917   0.924   7.083
 1589SOL     OW16105   0.991   0.410   6.828
 1589SOL    HW116106   0.914   0.444   6.882
 1589SOL    HW216107   0.957   0.359   6.749
 1590SOL     OW16108   1.041   0.701   6.015
 1590SOL    HW116109   1.067   0.697   6.111
 1590SOL    HW216110   0.956   0.650   6.001
 1591SOL     OW16111   0.076   0.811   6.375
 1591SOL    HW116112   0.175   0.799   6.384
 1591SOL    HW216113   0.052   0.906   6.396
 1592SOL     OW16114   0.130   1.821   7.157
 1592SOL    HW116115   0.120   1.806   7.256
 1592SOL    HW216116   0.044   1.857   7.121
 1593SOL     OW16117   0.865   0.348   5.781
 1593SOL    HW116118   0.924   0.411   5.732
 1593SOL    HW216119   0.884   0.254   5.752
 1594SOL     OW16120   1.719   0.585   7.417
 1594SOL    HW116121   1.693   0.674   7.381
 1594SOL    HW216122   1.717   0.517   7.344
 1595SOL     OW16123   1.362   1.144   6.131
 1595SOL    HW116124   1.445   1.115   6.083
 1595SOL    HW216125   1.313   1.211   6.075
 1596SOL     OW16126   0.550   0.196   6.471
 1596SOL    HW116127   0.545   0.191   6.571
 1596SOL    HW216128   0.552   0.292   6.442
 1597SOL     OW16129   1.008   1.456   6.063
 1597SOL    HW116130   0.962   1.528   6.011
 1597SOL    HW216131   1.004   1.476   6.161
 1598SOL     OW16132   0.351   1.801   6.439
 1598SOL    HW116133   0.401   1.715   6.445
 1598SOL    HW216134   0.416   1.878   6.436
 1599SOL     OW16135   1.795   1.066   6.459
 1599SOL    HW116136   1.733   1.051   6.383
 1599SOL    HW216137   1.743   1.077   6.544
 1600SOL     OW16138   1.227   1.550   7.092
 1600SOL    HW116139   1.233   1.473   7.156
 1600SOL    HW216140   1.175   1.524   7.012
 1601SOL     OW16141   0.321   0.943   5.828
 1601SOL    HW116142   0.403   0.982   5.786
 1601SOL    HW216143   0.294   0.861   5.779
 1602SOL     OW16144   1.458   0.735   6.314
 1602SOL    HW116145   1.453   0.670   6.389
 1602SOL    HW216146   1.538   0.794   6.327
 1603SOL     OW16147   0.461   1.266   7.313
 1603SOL    HW116148   0.411   1.267   7.227
 1603SOL    HW216149   0.398   1.248   7.389
 1604SOL     OW16150   1.111   1.776   5.823
 1604SOL    HW116151   1.051   1.714   5.873
 1604SOL    HW216152   1.142   1.732   5.738
 1605SOL     OW16153   0.202   0.285   7.084
 1605SOL    HW116154   0.122   0.345   7.071
 1605SOL    HW216155   0.192   0.236   7.170
 1606SOL     OW16156   1.632   1.377   5.667
 1606SOL    HW116157   1.600   1.471   5.657
 1606SOL    HW216158   1.556   1.314   5.655
 1607SOL     OW16159   0.464   1.743   5.909
 1607SOL    HW116160   0.497   1.782   5.995
 1607SOL    HW216161   0.540   1.736   5.844
 1608SOL     OW16162   1.400   0.107   6.012
 1608SOL    HW116163   1.376   0.070   5.922
 1608SOL    HW216164   1.499   0.123   6.016
 1609SOL     OW16165   0.249   1.785   6.827
 1609SOL    HW116166   0.306   1.720   6.877
 1609SOL    HW216167   0.233   1.752   6.734
 1610SOL     OW16168   0.940   1.698   6.490
 1610SOL    HW116169   1.020   1.641   6.511
 1610SOL    HW216170   0.891   1.658   6.413
 1611SOL     OW16171   0.382   0.700   6.066
 1611SOL    HW116172   0.427   0.610   6.063
 1611SOL    HW216173   0.288   0.689   6.099
 1612SOL     OW16174   1.547   0.222   7.315
 1612SOL    HW116175   1.542   0.259   7.407
 1612SOL    HW216176   1.475   0.153   7.303
 1613SOL     OW16177   0.614   0.122   5.703
 1613SOL    HW116178   0.712   0.100   5.710
 1613SOL    HW216179   0.583   0.105   5.610
 1614SOL     OW16180   0.781   0.264   7.335
 1614SOL    HW116181   0.848   0.203   7.378
 1614SOL    HW216182   0.708   0.283   7.400
 1615SOL     OW16183   0.888   1.514   6.781
 1615SOL    HW116184   0.865   1.489   6.687
 1615SOL    HW216185   0.949   1.445   6.820
 1616SOL     OW16186   1.351   0.590   7.019
 1616SOL    HW116187   1.379   0.547   7.104
 1616SOL    HW216188   1.376   0.686   7.020
 1617SOL     OW16189   0.803   1.402   6.510
 1617SOL    HW116190   0.893   1.416   6.468
 1617SOL    HW216191   0.732   1.404   6.439
 1618SOL     OW16192   0.922   0.503   6.485
 1618SOL    HW116193   0.897   0.494   6.389
 1618SOL    HW216194   0.970   0.421   6.516
 1619SOL     OW16195   0.539   0.064   6.098
 1619SOL    HW116196   0.458   0.065   6.156
 1619SOL    HW216197   0.542   0.147   6.043
 1620SOL     OW16198   1.434   1.188   5.627
 1620SOL    HW116199   1.466   1.112   5.684
 1620SOL    HW216200   1.342   1.215   5.657
 1621SOL     OW16201   0.297   0.035   5.757
 1621SOL    HW116202   0.346   0.119   5.736
 1621SOL    HW216203   0.359  -0.030   5.802
 1622SOL     OW16204   0.935   0.236   6.066
 1622SOL    HW116205   0.887   0.277   5.988
 1622SOL    HW216206   1.034   0.234   6.047
 1623SOL     OW16207   1.076   0.683   7.050
 1623SOL    HW116208   0.996   0.622   7.053
 1623SOL    HW216209   1.157   0.630   7.026
 1624SOL     OW16210   1.227   1.570   6.379
 1624SOL    HW116211   1.248   1.644   6.314
 1624SOL    HW216212   1.295   1.570   6.452
 1625SOL     OW16213   0.459   1.152   6.327
 1625SOL    HW116214   0.388   1.125   6.392
 1625SOL    HW216215   0.433   1.124   6.234
 1626SOL     OW16216   1.271   1.797   6.177
 1626SOL    HW116217   1.315   1.861   6.113
 1626SOL    HW216218   1.221   1.849   6.247
 1627SOL     OW16219   1.032   0.549   5.602
 1627SOL    HW116220   0.991   0.631   5.563
 1627SOL    HW216221   1.096   0.575   5.675
 1628SOL     OW16222   0.078   0.556   6.972
 1628SOL    HW116223   0.170   0.555   6.931
 1628SOL    HW216224   0.072   0.630   7.039
 1629SOL     OW16225   0.561   0.222   6.733
 1629SOL    HW116226   0.599   0.138   6.770
 1629SOL    HW216227   0.473   0.241   6.777
 1630SOL     OW16228   0.866   0.454   6.228
 1630SOL    HW116229   0.834   0.526   6.166
 1630SOL    HW216230   0.890   0.373   6.175
 1631SOL     OW16231   1.017   0.039   6.339
 1631SOL    HW116232   0.945   0.044   6.270
 1631SOL    HW216233   0.993  -0.030   6.408
 1632SOL     OW16234   1.429   1.173   6.453
 1632SOL    HW116235   1.374   1.089   6.446
 1632SOL    HW216236   1.455   1.202   6.361
 1633SOL     OW16237   1.466   0.590   6.578
 1633SOL    HW116238   1.436   0.495   6.585
 1633SOL    HW216239   1.539   0.606   6.644
 1634SOL     OW16240   0.488   1.385   5.760
 1634SOL    HW116241   0.401   1.370   5.807
 1634SOL    HW216242   0.471   1.411   5.665
 1635SOL     OW16243   1.664   1.280   6.243
 1635SOL    HW116244   1.763   1.288   6.257
 1635SOL    HW216245   1.619   1.364   6.274
 1636SOL     OW16246   1.390   0.575   5.664
 1636SOL    HW116247   1.336   0.554   5.745
 1636SOL    HW216248   1.481   0.534   5.673
 1637SOL     OW16249   0.527   0.256   5.914
 1637SOL    HW116250   0.554   0.197   5.839
 1637SOL    HW216251   0.527   0.351   5.883
 1638SOL     OW16252   1.754   1.223   7.174
 1638SOL    HW116253   1.845   1.184   7.161
 1638SOL    HW216254   1.762   1.319   7.198
 1639SOL     OW16255   1.064   1.347   6.926
 1639SOL    HW116256   0.984   1.324   6.981
 1639SOL    HW216257   1.147   1.321   6.975
 1640SOL     OW16258   1.592   1.629   7.211
 1640SOL    HW116259   1.619   1.663   7.121
 1640SOL    HW216260   1.671   1.591   7.257
 1641SOL     OW16261   1.111   1.195   6.686
 1641SOL    HW116262   1.071   1.239   6.767
 1641SOL    HW216263   1.070   1.232   6.603
 1642SOL     OW16264   1.638   1.099   6.665
 1642SOL    HW116265   1.643   1.180   6.724
 1642SOL    HW216266   1.552   1.101   6.614
 1643SOL     OW16267   0.915   0.089   6.988
 1643SOL    HW116268   0.940   0.069   6.893
 1643SOL    HW216269   0.987   0.145   7.030
 1644SOL     OW16270   0.980   1.116   7.305
 1644SOL    HW116271   0.881   1.122   7.315
 1644SOL    HW216272   1.003   1.036   7.249
 1645SOL     OW16273   0.705   1.050   5.954
 1645SOL    HW116274   0.691   1.057   6.053
 1645SOL    HW216275   0.789   0.999   5.936
 1646SOL     OW16276   0.410   0.813   6.837
 1646SOL    HW116277   0.496   0.825   6.887
 1646SOL    HW216278   0.368   0.726   6.864
 1647SOL     OW16279   1.274   0.386   6.848
 1647SOL    HW116280   1.295   0.460   6.912
 1647SOL    HW216281   1.185   0.403   6.805
 1648SOL     OW16282   0.064   1.564   6.917
 1648SOL    HW116283   0.018   1.646   6.883
 1648SOL    HW216284   0.162   1.583   6.926
 1649SOL     OW16285   0.367   1.100   6.087
 1649SOL    HW116286   0.360   1.183   6.031
 1649SOL    HW216287   0.371   1.020   6.027
 1650SOL     OW16288   0.566   0.537   6.451
 1650SOL    HW116289   0.578   0.603   6.377
 1650SOL    HW216290   0.612   0.571   6.534
 1651SOL     OW16291   1.252   1.348   5.974
 1651SOL    HW116292   1.302   1.425   6.014
 1651SOL    HW216293   1.157   1.350   6.006
 1652SOL     OW16294   1.272   1.445   6.728
 1652SOL    HW116295   1.319   1.458   6.815
 1652SOL    HW216296   1.206   1.371   6.737
 1653SOL     OW16297   1.582   0.639   6.058
 1653SOL    HW116298   1.551   0.700   6.131
 1653SOL    HW216299   1.632   0.691   5.989
 1654SOL     OW16300   0.354   1.510   6.915
 1654SOL    HW116301   0.333   1.466   6.828
 1654SOL    HW216302   0.451   1.536   6.918
 1655SOL     OW16303   0.402   0.751   7.184
 1655SOL    HW116304   0.470   0.806   7.137
 1655SOL    HW216305   0.442   0.663   7.211
 1656SOL     OW16306   1.587   0.779   7.256
 1656SOL    HW116307   1.495   0.817   7.251
 1656SOL    HW216308   1.647   0.826   7.191
 1657SOL     OW16309   1.013   0.105   7.356
 1657SOL    HW116310   1.019   0.190   7.304
 1657SOL    HW216311   1.045   0.029   7.299
 1658SOL     OW16312   0.504   0.050   7.326
 1658SOL    HW116313   0.462  -0.007   7.256
 1658SOL    HW216314   0.438   0.119   7.358
 1659SOL     OW16315   0.573   0.870   6.615
 1659SOL    HW116316   0.617   0.959   6.606
 1659SOL    HW216317   0.510   0.870   6.692
 1660SOL     OW16318   1.360   0.862   6.631
 1660SOL    HW116319   1.285   0.862   6.565
 1660SOL    HW216320   1.397   0.770   6.640
 1661SOL     OW16321   1.209   0.525   5.861
 1661SOL    HW116322   1.222   0.441   5.915
 1661SOL    HW216323   1.180   0.599   5.921
 1662SOL     OW16324   0.307   0.213   6.817
 1662SOL    HW116325   0.284   0.250   6.907
 1662SOL    HW216326   0.277   0.118   6.811
 1663SOL     OW16327   0.037   1.310   6.868
 1663SOL    HW116328   0.090   1.261   6.936
 1663SOL    HW216329   0.059   1.408   6.873
 1664SOL     OW16330   0.732   0.634   6.650
 1664SOL    HW116331   0.791   0.608   6.574
 1664SOL    HW216332   0.704   0.730   6.639
 1665SOL     OW16333   1.728   0.935   7.440
 1665SOL    HW116334   1.682   0.928   7.351
 1665SOL    HW216335   1.666   0.979   7.506
 1666SOL     OW16336   0.307   0.063   6.204
 1666SOL    HW116337   0.296   0.157   6.237
 1666SOL    HW216338   0.302   0.000   6.281
 1667SOL     OW16339   1.622   0.367   5.960
 1667SOL    HW116340   1.624   0.291   6.024
 1667SOL    HW216341   1.574   0.444   6.000
 1668SOL     OW16342   1.023   0.766   6.552
 1668SOL    HW116343   1.038   0.787   6.648
 1668SOL    HW216344   0.993   0.671   6.543
 1669SOL     OW16345   0.980   1.573   7.286
 1669SOL    HW116346   0.960   1.617   7.198
 1669SOL    HW216347   1.019   1.482   7.270
 1670SOL     OW16348   1.859   1.518   7.191
 1670SOL    HW116349   1.873   1.545   7.096
 1670SOL    HW216350   1.942   1.540   7.244
 1671SOL     OW16351   0.350   0.898   7.390
 1671SOL    HW116352   0.426   0.942   7.438
 1671SOL    HW216353   0.385   0.851   7.308
 1672SOL     OW16354   1.540   0.274   5.711
 1672SOL    HW116355   1.479   0.199   5.734
 1672SOL    HW216356   1.562   0.326   5.794
 1673SOL     OW16357   1.303   0.838   5.628
 1673SOL    HW116358   1.337   0.745   5.643
 1673SOL    HW216359   1.321   0.865   5.533
 1674SOL     OW16360   1.068   1.333   6.435
 1674SOL    HW116361   1.075   1.249   6.380
 1674SOL    HW216362   1.130   1.402   6.399
 1675SOL     OW16363   0.319   0.810   6.535
 1675SOL    HW116364   0.412   0.846   6.540
 1675SOL    HW216365   0.313   0.725   6.587
 1676SOL     OW16366   0.339   0.509   6.592
 1676SOL    HW116367   0.287   0.426   6.575
 1676SOL    HW216368   0.416   0.514   6.528
 1677SOL     OW16369   1.138   0.380   7.264
 1677SOL    HW116370   1.093   0.443   7.328
 1677SOL    HW216371   1.231   0.411   7.247
 1678SOL     OW16372   1.160   0.207   7.063
 1678SOL    HW116373   1.160   0.271   7.140
 1678SOL    HW216374   1.188   0.255   6.980
 1679SOL     OW16375   0.008   1.326   5.786
 1679SOL    HW116376  -0.085   1.347   5.755
 1679SOL    HW216377   0.018   1.227   5.799
 1680SOL     OW16378   0.088   1.801   6.513
 1680SOL    HW116379   0.046   1.715   6.486
 1680SOL    HW216380   0.182   1.804   6.479
 1681SOL     OW16381   0.504   1.568   6.496
 1681SOL    HW116382   0.570   1.642   6.505
 1681SOL    HW216383   0.548   1.489   6.454
 1682SOL     OW16384   1.002   0.796   6.824
 1682SOL    HW116385   1.043   0.764   6.910
 1682SOL    HW216386   0.906   0.769   6.821
 1683SOL     OW16387   0.040   0.544   6.700
 1683SOL    HW116388   0.125   0.511   6.659
 1683SOL    HW216389   0.053   0.559   6.798
 1684SOL     OW16390   0.189   0.520   7.308
 1684SOL    HW116391   0.248   0.480   7.238
 1684SOL    HW216392   0.131   0.591   7.267
 1685SOL     OW16393   1.369   0.950   7.246
 1685SOL    HW116394   1.408   1.039   7.266
 1685SOL    HW216395   1.379   0.930   7.149
 1686SOL     OW16396   0.815   0.572   5.911
 1686SOL    HW116397   0.822   0.483   5.865
 1686SOL    HW216398   0.721   0.606   5.903
 1687SOL     OW16399   1.657   0.604   6.792
 1687SOL    HW116400   1.619   0.535   6.854
 1687SOL    HW216401   1.739   0.568   6.748
 1688SOL     OW16402   0.252   1.564   7.330
 1688SOL    HW116403   0.222   1.621   7.406
 1688SOL    HW216404   0.245   1.467   7.356
 1689SOL     OW16405   0.671   0.464   6.855
 1689SOL    HW116406   0.637   0.375   6.825
 1689SOL    HW216407   0.697   0.518   6.775
 1690SOL     OW16408   0.930   1.678   7.051
 1690SOL    HW116409   0.906   1.660   6.956
 1690SOL    HW216410   0.960   1.772   7.061
 1691SOL     OW16411   0.473   0.500   5.777
 1691SOL    HW116412   0.534   0.580   5.781
 1691SOL    HW216413   0.378   0.531   5.784
 1692SOL     OW16414   0.159   1.137   7.052
 1692SOL    HW116415   0.181   1.076   7.128
 1692SOL    HW216416   0.169   1.088   6.966
 1693SOL     OW16417   1.347   1.059   6.820
 1693SOL    HW116418   1.371   0.996   6.746
 1693SOL    HW216419   1.257   1.099   6.802
 1694SOL     OW16420   1.302   0.855   5.895
 1694SOL    HW116421   1.216   0.824   5.937
 1694SOL    HW216422   1.298   0.841   5.796
 1695SOL     OW16423   1.759   1.747   6.740
 1695SOL    HW116424   1.820   1.777   6.667
 1695SOL    HW216425   1.721   1.658   6.718
 1696SOL     OW16426   1.252   1.731   6.714
 1696SOL    HW116427   1.336   1.736   6.660
 1696SOL    HW216428   1.229   1.635   6.732
 1697SOL     OW16429   0.083   1.258   6.608
 1697SOL    HW116430   0.078   1.257   6.708
 1697SOL    HW216431   0.000   1.217   6.570
 1698SOL     OW16432   0.688   1.662   7.302
 1698SOL    HW116433   0.632   1.743   7.311
 1698SOL    HW216434   0.740   1.666   7.216
 1699SOL     OW16435   1.726   0.135   6.109
 1699SOL    HW116436   1.799   0.118   6.042
 1699SOL    HW216437   1.695   0.048   6.147
 1700SOL     OW16438   1.388   1.573   6.063
 1700SOL    HW116439   1.455   1.585   5.989
 1700SOL    HW216440   1.348   1.662   6.086
 1701SOL     OW16441   0.130   1.794   7.437
 1701SOL    HW116442   0.089   1.720   7.490
 1701SOL    HW216443   0.194   1.845   7.495
 1702SOL     OW16444   1.280   0.927   6.258
 1702SOL    HW116445   1.340   0.846   6.260
 1702SOL    HW216446   1.320   0.996   6.198
 1703SOL     OW16447   0.830   1.273   7.008
 1703SOL    HW116448   0.825   1.306   7.103
 1703SOL    HW216449   0.744   1.292   6.962
 1704SOL     OW16450   0.672   1.616   5.740
 1704SOL    HW116451   0.681   1.626   5.641
 1704SOL    HW216452   0.632   1.527   5.761
 1705SOL     OW16453   1.650   1.720   6.980
 1705SOL    HW116454   1.703   1.730   6.896
 1705SOL    HW216455   1.623   1.810   7.014
 1706SOL     OW16456   1.841   0.175   6.549
 1706SOL    HW116457   1.880   0.090   6.513
 1706SOL    HW216458   1.743   0.177   6.530
 1707SOL     OW16459   0.263   0.326   6.306
 1707SOL    HW116460   0.184   0.377   6.272
 1707SOL    HW216461   0.254   0.311   6.404
 1708SOL     OW16462   1.194   1.612   5.617
 1708SOL    HW116463   1.200   1.519   5.654
 1708SOL    HW216464   1.135   1.612   5.537
 1709SOL     OW16465   0.822   1.002   6.958
 1709SOL    HW116466   0.862   1.001   6.866
 1709SOL    HW216467   0.832   1.094   6.998
 1710SOL     OW16468   0.916   0.910   5.877
 1710SOL    HW116469   0.979   0.948   5.809
 1710SOL    HW216470   0.956   0.827   5.916
 1711SOL     OW16471   1.504   1.607   5.630
 1711SOL    HW116472   1.412   1.644   5.637
 1711SOL    HW216473   1.542   1.627   5.540
 1712SOL     OW16474   0.372   1.288   7.076
 1712SOL    HW116475   0.359   1.381   7.042
 1712SOL    HW216476   0.288   1.236   7.063
 1713SOL     OW16477   1.614   1.292   6.875
 1713SOL    HW116478   1.674   1.295   6.955
 1713SOL    HW216479   1.539   1.356   6.888
 1714SOL     OW16480   1.039   1.098   6.282
 1714SOL    HW116481   0.969   1.051   6.336
 1714SOL    HW216482   1.098   1.030   6.239
 1715SOL     OW16483   1.014   0.236   6.557
 1715SOL    HW116484   1.006   0.200   6.464
 1715SOL    HW216485   1.012   0.160   6.622
 1716SOL     OW16486   0.590   1.487   6.077
 1716SOL    HW116487   0.632   1.429   6.007
 1716SOL    HW216488   0.546   1.566   6.033
 1717SOL     OW16489   1.709   0.385   6.967
 1717SOL    HW116490   1.782   0.454   6.971
 1717SOL    HW216491   1.737   0.310   6.908
 1718SOL     OW16492   0.255   1.348   5.876
 1718SOL    HW116493   0.159   1.349   5.849
 1718SOL    HW216494   0.267   1.401   5.960
 1719SOL     OW16495   0.105   1.013   7.312
 1719SOL    HW116496   0.028   0.980   7.366
 1719SOL    HW216497   0.190   0.983   7.354
 1720SOL     OW16498   0.672   0.203   7.075
 1720SOL    HW116499   0.762   0.187   7.035
 1720SOL    HW216500   0.680   0.208   7.174
 1721SOL     OW16501   0.075   0.345   5.619
 1721SOL    HW116502  -0.017   0.317   5.590
 1721SOL    HW216503   0.106   0.422   5.563
 1722SOL     OW16504   1.440   0.856   6.984
 1722SOL    HW116505   1.383   0.908   6.921
 1722SOL    HW216506   1.536   0.868   6.960
 1723SOL     OW16507   0.072   0.166   5.904
 1723SOL    HW116508   0.055   0.249   5.850
 1723SOL    HW216509   0.162   0.129   5.882
 1724SOL     OW16510   1.183   1.335   5.705
 1724SOL    HW116511   1.084   1.324   5.707
 1724SOL    HW216512   1.217   1.350   5.798
 1725SOL     OW16513   0.613   0.842   7.017
 1725SOL    HW116514   0.669   0.923   7.000
 1725SOL    HW216515   0.672   0.762   7.020
 1726SOL     OW16516   1.493   1.767   6.545
 1726SOL    HW116517   1.526   1.831   6.476
 1726SOL    HW216518   1.559   1.761   6.620
 1727SOL     OW16519   0.716   0.565   7.294
 1727SOL    HW116520   0.735   0.630   7.368
 1727SOL    HW216521   0.776   0.485   7.303
 1728SOL     OW16522   1.450   1.220   7.219
 1728SOL    HW116523   1.441   1.210   7.318
 1728SOL    HW216524   1.546   1.213   7.193
 1729SOL     OW16525   0.390   1.741   7.146
 1729SOL    HW116526   0.299   1.782   7.144
 1729SOL    HW216527   0.383   1.647   7.178
 1730SOL     OW16528   1.674   0.883   6.840
 1730SOL    HW116529   1.647   0.794   6.803
 1730SOL    HW216530   1.675   0.951   6.767
 1731SOL     OW16531   1.225   0.325   6.035
 1731SOL    HW116532   1.290   0.251   6.024
 1731SOL    HW216533   1.245   0.375   6.119
 1732SOL     OW16534   0.594   0.745   6.238
 1732SOL    HW116535   0.644   0.830   6.219
 1732SOL    HW216536   0.506   0.747   6.190
 1733SOL     OW16537   1.777   0.342   7.228
 1733SOL    HW116538   1.760   0.373   7.134
 1733SOL    HW216539   1.693   0.305   7.266
 1734SOL     OW16540   1.730   0.934   7.103
 1734SOL    HW116541   1.768   1.025   7.118
 1734SOL    HW216542   1.722   0.917   7.004
 1735SOL     OW16543   0.859   1.374   5.602
 1735SOL    HW116544   0.813   1.389   5.690
 1735SOL    HW216545   0.903   1.459   5.572
 1736SOL     OW16546   0.661   1.790   6.539
 1736SOL    HW116547   0.615   1.878   6.526
 1736SOL    HW216548   0.760   1.802   6.532
 1737SOL     OW16549   0.859   0.956   6.447
 1737SOL    HW116550   0.913   0.887   6.495
 1737SOL    HW216551   0.827   1.025   6.513
 1738SOL     OW16552   1.083   0.984   5.673
 1738SOL    HW116553   1.060   1.037   5.591
 1738SOL    HW216554   1.164   0.928   5.654
 1739SOL     OW16555   1.861   1.569   6.437
 1739SOL    HW116556   1.790   1.557   6.367
 1739SOL    HW216557   1.862   1.490   6.497
 1740SOL     OW16558   0.221   1.314   7.430
 1740SOL    HW116559   0.156   1.241   7.409
 1740SOL    HW216560   0.225   1.328   7.528
 1741SOL     OW16561   0.079   1.240   6.239
 1741SOL    HW116562   0.078   1.193   6.327
 1741SOL    HW216563   0.161   1.212   6.188
 1742SOL     OW16564   0.672   1.391   7.210
 1742SOL    HW116565   0.594   1.341   7.248
 1742SOL    HW216566   0.669   1.486   7.241
 1743SOL     OW16567   1.824   0.192   6.813
 1743SOL    HW116568   1.820   0.102   6.857
 1743SOL    HW216569   1.827   0.181   6.714
 1744SOL     OW16570   0.428   0.424   6.106
 1744SOL    HW116571   0.458   0.352   6.044
 1744SOL    HW216572   0.389   0.384   6.189
 1745SOL     OW16573   1.705   1.487   6.690
 1745SOL    HW116574   1.612   1.462   6.663
 1745SOL    HW216575   1.731   1.437   6.772
 1746SOL     OW16576   0.317   0.547   6.866
 1746SOL    HW116577   0.355   0.488   6.938
 1746SOL    HW216578   0.357   0.521   6.778
 1747SOL     OW16579   0.812   1.586   6.273
 1747SOL    HW116580   0.844   1.596   6.179
 1747SOL    HW216581   0.733   1.524   6.275
 1748SOL     OW16582   1.424   0.214   6.698
 1748SOL    HW116583   1.476   0.149   6.753
 1748SOL    HW216584   1.375   0.277   6.759
 1749SOL     OW16585   1.001   0.034   6.740
 1749SOL    HW116586   0.938  -0.038   6.709
 1749SOL    HW216587   1.094  -0.002   6.740
 1750SOL     OW16588   0.770   1.330   5.887
 1750SOL    HW116589   0.724   1.243   5.904
 1750SOL    HW216590   0.861   1.327   5.928
 1751SOL     OW16591   0.618   1.567   6.870
 1751SOL    HW116592   0.613   1.649   6.927
 1751SOL    HW216593   0.707   1.564   6.825
 1752SOL     OW16594   1.352   0.052   5.754
 1752SOL    HW116595   1.387   0.011   5.670
 1752SOL    HW216596   1.262   0.014   5.774
 1753SOL     OW16597   1.300   0.453   6.277
 1753SOL    HW116598   1.241   0.533   6.281
 1753SOL    HW216599   1.315   0.418   6.370
 1754SOL     OW16600   1.593   0.221   6.468
 1754SOL    HW116601   1.509   0.220   6.522
 1754SOL    HW216602   1.595   0.304   6.412
 1755SOL     OW16603   0.039   1.077   5.886
 1755SOL    HW116604   0.138   1.066   5.877
 1755SOL    HW216605  -0.001   0.991   5.918
 1756SOL     OW16606   0.875   1.646   5.923
 1756SOL    HW116607   0.798   1.611   5.869
 1756SOL    HW216608   0.843   1.717   5.985
 1757SOL     OW16609   0.230   0.628   7.561
 1757SOL    HW116610   0.137   0.626   7.598
 1757SOL    HW216611   0.231   0.589   7.469
 1758SOL     OW16612   0.225   0.275   8.444
 1758SOL    HW116613   0.260   0.258   8.536
 1758SOL    HW216614   0.137   0.230   8.432
 1759SOL     OW16615   0.019   0.368   8.095
 1759SOL    HW116616  -0.063   0.411   8.134
 1759SOL    HW216617  -0.009   0.295   8.032
 1760SOL     OW16618   0.569   1.275   8.613
 1760SOL    HW116619   0.476   1.268   8.576
 1760SOL    HW216620   0.580   1.364   8.657
 1761SOL     OW16621   1.555   1.511   8.151
 1761SOL    HW116622   1.498   1.495   8.232
 1761SOL    HW216623   1.496   1.521   8.071
 1762SOL     OW16624   1.135   0.703   8.165
 1762SOL    HW116625   1.192   0.781   8.140
 1762SOL    HW216626   1.075   0.729   8.241
 1763SOL     OW16627   1.755   0.607   7.679
 1763SOL    HW116628   1.743   0.594   7.580
 1763SOL    HW216629   1.725   0.526   7.728
 1764SOL     OW16630   0.768   1.144   8.471
 1764SOL    HW116631   0.690   1.161   8.531
 1764SOL    HW216632   0.802   1.231   8.435
 1765SOL     OW16633   0.850   0.798   9.271
 1765SOL    HW116634   0.846   0.874   9.336
 1765SOL    HW216635   0.872   0.834   9.180
 1766SOL     OW16636   0.685   1.012   8.113
 1766SOL    HW116637   0.754   0.996   8.183
 1766SOL    HW216638   0.612   1.069   8.151
 1767SOL     OW16639   0.686   1.161   9.251
 1767SOL    HW116640   0.746   1.240   9.265
 1767SOL    HW216641   0.600   1.192   9.210
 1768SOL     OW16642   0.335   1.435   8.509
 1768SOL    HW116643   0.257   1.404   8.456
 1768SOL    HW216644   0.393   1.493   8.452
 1769SOL     OW16645   1.460   1.505   8.787
 1769SOL    HW116646   1.484   1.599   8.813
 1769SOL    HW216647   1.444   1.451   8.869
 1770SOL     OW16648   0.438   0.392   8.947
 1770SOL    HW116649   0.520   0.336   8.956
 1770SOL    HW216650   0.357   0.334   8.951
 1771SOL     OW16651   1.603   0.447   8.185
 1771SOL    HW116652   1.529   0.493   8.135
 1771SOL    HW216653   1.654   0.515   8.238
 1772SOL     OW16654   0.231   1.713   7.931
 1772SOL    HW116655   0.265   1.790   7.985
 1772SOL    HW216656   0.275   1.713   7.841
 1773SOL     OW16657   1.127   1.341   9.138
 1773SOL    HW116658   1.174   1.341   9.226
 1773SOL    HW216659   1.079   1.254   9.127
 1774SOL     OW16660   0.230   1.434   7.986
 1774SOL    HW116661   0.204   1.530   7.986
 1774SOL    HW216662   0.159   1.380   8.031
 1775SOL     OW16663   0.240   1.091   8.334
 1775SOL    HW116664   0.254   1.007   8.386
 1775SOL    HW216665   0.185   1.155   8.389
 1776SOL     OW16666   0.620   1.786   8.887
 1776SOL    HW116667   0.528   1.769   8.922
 1776SOL    HW216668   0.648   1.878   8.913
 1777SOL     OW16669   0.606   0.964   7.571
 1777SOL    HW116670   0.613   1.048   7.517
 1777SOL    HW216671   0.652   0.977   7.659
 1778SOL     OW16672   0.122   0.643   8.011
 1778SOL    HW116673   0.077   0.555   8.028
 1778SOL    HW216674   0.121   0.697   8.095
 1779SOL     OW16675   1.842   1.767   7.807
 1779SOL    HW116676   1.896   1.738   7.887
 1779SOL    HW216677   1.872   1.857   7.778
 1780SOL     OW16678   0.027   1.596   7.565
 1780SOL    HW116679   0.008   1.500   7.586
 1780SOL    HW216680  -0.006   1.654   7.640
 1781SOL     OW16681   1.689   0.922   8.060
 1781SOL    HW116682   1.784   0.893   8.068
 1781SOL    HW216683   1.681   0.987   7.985
 1782SOL     OW16684   1.641   1.108   7.880
 1782SOL    HW116685   1.727   1.110   7.828
 1782SOL    HW216686   1.655   1.155   7.968
 1783SOL     OW16687   0.113   0.737   9.045
 1783SOL    HW116688   0.201   0.724   9.090
 1783SOL    HW216689   0.100   0.834   9.023
 1784SOL     OW16690   0.613   1.365   8.174
 1784SOL    HW116691   0.564   1.278   8.183
 1784SOL    HW216692   0.590   1.408   8.087
 1785SOL     OW16693   1.293   1.228   8.871
 1785SOL    HW116694   1.330   1.155   8.813
 1785SOL    HW216695   1.345   1.233   8.956
 1786SOL     OW16696   0.809   0.004   7.950
 1786SOL    HW116697   0.849   0.095   7.941
 1786SOL    HW216698   0.709   0.012   7.956
 1787SOL     OW16699   0.197   0.976   8.712
 1787SOL    HW116700   0.286   0.931   8.698
 1787SOL    HW216701   0.124   0.911   8.693
 1788SOL     OW16702   1.525   0.999   7.638
 1788SOL    HW116703   1.462   0.923   7.651
 1788SOL    HW216704   1.573   1.017   7.724
 1789SOL     OW16705   1.187   1.792   9.064
 1789SOL    HW116706   1.211   1.852   8.988
 1789SOL    HW216707   1.194   1.697   9.034
 1790SOL     OW16708   0.317   0.251   9.249
 1790SOL    HW116709   0.388   0.322   9.255
 1790SOL    HW216710   0.229   0.290   9.277
 1791SOL     OW16711   1.466   1.417   8.401
 1791SOL    HW116712   1.407   1.423   8.481
 1791SOL    HW216713   1.451   1.329   8.355
 1792SOL     OW16714   1.667   1.714   8.020
 1792SOL    HW116715   1.626   1.691   7.932
 1792SOL    HW216716   1.649   1.640   8.085
 1793SOL     OW16717   0.598   0.729   7.718
 1793SOL    HW116718   0.622   0.798   7.650
 1793SOL    HW216719   0.520   0.762   7.772
 1794SOL     OW16720   1.281   0.345   8.392
 1794SOL    HW116721   1.195   0.295   8.379
 1794SOL    HW216722   1.343   0.291   8.448
 1795SOL     OW16723   1.576   1.662   7.755
 1795SOL    HW116724   1.665   1.708   7.758
 1795SOL    HW216725   1.555   1.638   7.660
 1796SOL     OW16726   0.807   0.605   8.913
 1796SOL    HW116727   0.760   0.602   9.002
 1796SOL    HW216728   0.756   0.550   8.847
 1797SOL     OW16729   0.973   0.890   9.020
 1797SOL    HW116730   1.019   0.806   8.991
 1797SOL    HW216731   0.917   0.924   8.945
 1798SOL     OW16732   0.991   0.410   8.690
 1798SOL    HW116733   0.914   0.444   8.744
 1798SOL    HW216734   0.957   0.359   8.611
 1799SOL     OW16735   1.041   0.701   7.877
 1799SOL    HW116736   1.067   0.697   7.973
 1799SOL    HW216737   0.956   0.650   7.863
 1800SOL     OW16738   0.076   0.811   8.237
 1800SOL    HW116739   0.175   0.799   8.246
 1800SOL    HW216740   0.052   0.906   8.258
 1801SOL     OW16741   0.130   1.821   9.019
 1801SOL    HW116742   0.120   1.806   9.118
 1801SOL    HW216743   0.044   1.857   8.983
 1802SOL     OW16744   0.865   0.348   7.643
 1802SOL    HW116745   0.924   0.411   7.594
 1802SOL    HW216746   0.884   0.254   7.614
 1803SOL     OW16747   1.362   1.144   7.993
 1803SOL    HW116748   1.445   1.115   7.945
 1803SOL    HW216749   1.313   1.211   7.937
 1804SOL     OW16750   0.550   0.196   8.333
 1804SOL    HW116751   0.545   0.191   8.433
 1804SOL    HW216752   0.552   0.292   8.304
 1805SOL     OW16753   1.008   1.456   7.925
 1805SOL    HW116754   0.962   1.528   7.873
 1805SOL    HW216755   1.004   1.476   8.023
 1806SOL     OW16756   0.351   1.801   8.301
 1806SOL    HW116757   0.401   1.715   8.307
 1806SOL    HW216758   0.416   1.878   8.298
 1807SOL     OW16759   1.795   1.066   8.321
 1807SOL    HW116760   1.733   1.051   8.245
 1807SOL    HW216761   1.743   1.077   8.406
 1808SOL     OW16762   1.227   1.550   8.954
 1808SOL    HW116763   1.233   1.473   9.018
 1808SOL    HW216764   1.175   1.524   8.874
 1809SOL     OW16765   0.321   0.943   7.690
 1809SOL    HW116766   0.403   0.982   7.648
 1809SOL    HW216767   0.294   0.861   7.641
 1810SOL     OW16768   1.458   0.735   8.176
 1810SOL    HW116769   1.453   0.670   8.251
 1810SOL    HW216770   1.538   0.794   8.189
 1811SOL     OW16771   0.461   1.266   9.175
 1811SOL    HW116772   0.411   1.267   9.089
 1811SOL    HW216773   0.398   1.248   9.251
 1812SOL     OW16774   1.111   1.776   7.685
 1812SOL    HW116775   1.051   1.714   7.735
 1812SOL    HW216776   1.142   1.732   7.600
 1813SOL     OW16777   0.202   0.285   8.946
 1813SOL    HW116778   0.122   0.345   8.933
 1813SOL    HW216779   0.192   0.236   9.032
 1814SOL     OW16780   1.632   1.377   7.529
 1814SOL    HW116781   1.600   1.471   7.519
 1814SOL    HW216782   1.556   1.314   7.517
 1815SOL     OW16783   0.464   1.743   7.771
 1815SOL    HW116784   0.497   1.782   7.857
 1815SOL    HW216785   0.540   1.736   7.706
 1816SOL     OW16786   1.400   0.107   7.874
 1816SOL    HW116787   1.376   0.070   7.784
 1816SOL    HW216788   1.499   0.123   7.878
 1817SOL     OW16789   0.940   1.698   8.352
 1817SOL    HW116790   1.020   1.641   8.373
 1817SOL    HW216791   0.891   1.658   8.275
 1818SOL     OW16792   0.382   0.700   7.928
 1818SOL    HW116793   0.427   0.610   7.925
 1818SOL    HW216794   0.288   0.689   7.961
 1819SOL     OW16795   0.614   0.122   7.565
 1819SOL    HW116796   0.712   0.100   7.572
 1819SOL    HW216797   0.583   0.105   7.472
 1820SOL     OW16798   0.888   1.514   8.643
 1820SOL    HW116799   0.865   1.489   8.549
 1820SOL    HW216800   0.949   1.445   8.682
 1821SOL     OW16801   1.351   0.590   8.881
 1821SOL    HW116802   1.379   0.547   8.966
 1821SOL    HW216803   1.376   0.686   8.882
 1822SOL     OW16804   0.803   1.402   8.372
 1822SOL    HW116805   0.893   1.416   8.330
 1822SOL    HW216806   0.732   1.404   8.301
 1823SOL     OW16807   0.922   0.503   8.347
 1823SOL    HW116808   0.897   0.494   8.251
 1823SOL    HW216809   0.970   0.421   8.378
 1824SOL     OW16810   0.539   0.064   7.960
 1824SOL    HW116811   0.458   0.065   8.018
 1824SOL    HW216812   0.542   0.147   7.905
 1825SOL     OW16813   1.434   1.188   7.489
 1825SOL    HW116814   1.466   1.112   7.546
 1825SOL    HW216815   1.342   1.215   7.519
 1826SOL     OW16816   0.297   0.035   7.619
 1826SOL    HW116817   0.346   0.119   7.598
 1826SOL    HW216818   0.359  -0.030   7.664
 1827SOL     OW16819   0.935   0.236   7.928
 1827SOL    HW116820   0.887   0.277   7.850
 1827SOL    HW216821   1.034   0.234   7.909
 1828SOL     OW16822   1.076   0.683   8.912
 1828SOL    HW116823   0.996   0.622   8.915
 1828SOL    HW216824   1.157   0.630   8.888
 1829SOL     OW16825   1.227   1.570   8.241
 1829SOL    HW116826   1.248   1.644   8.176
 1829SOL    HW216827   1.295   1.570   8.314
 1830SOL     OW16828   0.459   1.152   8.189
 1830SOL    HW116829   0.388   1.125   8.254
 1830SOL    HW216830   0.433   1.124   8.096
 1831SOL     OW16831   1.271   1.797   8.039
 1831SOL    HW116832   1.315   1.861   7.975
 1831SOL    HW216833   1.221   1.849   8.109
 1832SOL     OW16834   1.032   0.549   7.464
 1832SOL    HW116835   0.991   0.631   7.425
 1832SOL    HW216836   1.096   0.575   7.537
 1833SOL     OW16837   0.078   0.556   8.834
 1833SOL    HW116838   0.170   0.555   8.793
 1833SOL    HW216839   0.072   0.630   8.901
 1834SOL     OW16840   0.561   0.222   8.595
 1834SOL    HW116841   0.599   0.138   8.632
 1834SOL    HW216842   0.473   0.241   8.639
 1835SOL     OW16843   0.866   0.454   8.090
 1835SOL    HW116844   0.834   0.526   8.028
 1835SOL    HW216845   0.890   0.373   8.037
 1836SOL     OW16846   1.017   0.039   8.201
 1836SOL    HW116847   0.945   0.044   8.132
 1836SOL    HW216848   0.993  -0.030   8.270
 1837SOL     OW16849   1.429   1.173   8.315
 1837SOL    HW116850   1.374   1.089   8.308
 1837SOL    HW216851   1.455   1.202   8.223
 1838SOL     OW16852   1.466   0.590   8.440
 1838SOL    HW116853   1.436   0.495   8.447
 1838SOL    HW216854   1.539   0.606   8.506
 1839SOL     OW16855   1.857   0.833   7.825
 1839SOL    HW116856   1.899   0.769   7.889
 1839SOL    HW216857   1.819   0.782   7.747
 1840SOL     OW16858   0.488   1.385   7.622
 1840SOL    HW116859   0.401   1.370   7.669
 1840SOL    HW216860   0.471   1.411   7.527
 1841SOL     OW16861   1.664   1.280   8.105
 1841SOL    HW116862   1.763   1.288   8.119
 1841SOL    HW216863   1.619   1.364   8.136
 1842SOL     OW16864   1.390   0.575   7.526
 1842SOL    HW116865   1.336   0.554   7.607
 1842SOL    HW216866   1.481   0.534   7.535
 1843SOL     OW16867   0.527   0.256   7.776
 1843SOL    HW116868   0.554   0.197   7.701
 1843SOL    HW216869   0.527   0.351   7.745
 1844SOL     OW16870   1.754   1.223   9.036
 1844SOL    HW116871   1.845   1.184   9.023
 1844SOL    HW216872   1.762   1.319   9.060
 1845SOL     OW16873   1.064   1.347   8.788
 1845SOL    HW116874   0.984   1.324   8.843
 1845SOL    HW216875   1.147   1.321   8.837
 1846SOL     OW16876   1.592   1.629   9.073
 1846SOL    HW116877   1.619   1.663   8.983
 1846SOL    HW216878   1.671   1.591   9.119
 1847SOL     OW16879   1.111   1.195   8.548
 1847SOL    HW116880   1.071   1.239   8.629
 1847SOL    HW216881   1.070   1.232   8.465
 1848SOL     OW16882   1.638   1.099   8.527
 1848SOL    HW116883   1.643   1.180   8.586
 1848SOL    HW216884   1.552   1.101   8.476
 1849SOL     OW16885   0.915   0.089   8.850
 1849SOL    HW116886   0.940   0.069   8.755
 1849SOL    HW216887   0.987   0.145   8.892
 1850SOL     OW16888   0.980   1.116   9.167
 1850SOL    HW116889   0.881   1.122   9.177
 1850SOL    HW216890   1.003   1.036   9.111
 1851SOL     OW16891   0.705   1.050   7.816
 1851SOL    HW116892   0.691   1.057   7.915
 1851SOL    HW216893   0.789   0.999   7.798
 1852SOL     OW16894   0.410   0.813   8.699
 1852SOL    HW116895   0.496   0.825   8.749
 1852SOL    HW216896   0.368   0.726   8.726
 1853SOL     OW16897   1.274   0.386   8.710
 1853SOL    HW116898   1.295   0.460   8.774
 1853SOL    HW216899   1.185   0.403   8.667
 1854SOL     OW16900   0.064   1.564   8.779
 1854SOL    HW116901   0.018   1.646   8.745
 1854SOL    HW216902   0.162   1.583   8.788
 1855SOL     OW16903   0.367   1.100   7.949
 1855SOL    HW116904   0.360   1.183   7.893
 1855SOL    HW216905   0.371   1.020   7.889
 1856SOL     OW16906   0.566   0.537   8.313
 1856SOL    HW116907   0.578   0.603   8.239
 1856SOL    HW216908   0.612   0.571   8.396
 1857SOL     OW16909   1.252   1.348   7.836
 1857SOL    HW116910   1.302   1.425   7.876
 1857SOL    HW216911   1.157   1.350   7.868
 1858SOL     OW16912   1.272   1.445   8.590
 1858SOL    HW116913   1.319   1.458   8.677
 1858SOL    HW216914   1.206   1.371   8.599
 1859SOL     OW16915   1.582   0.639   7.920
 1859SOL    HW116916   1.551   0.700   7.993
 1859SOL    HW216917   1.632   0.691   7.851
 1860SOL     OW16918   0.354   1.510   8.777
 1860SOL    HW116919   0.333   1.466   8.690
 1860SOL    HW216920   0.451   1.536   8.780
 1861SOL     OW16921   0.402   0.751   9.046
 1861SOL    HW116922   0.470   0.806   8.999
 1861SOL    HW216923   0.442   0.663   9.073
 1862SOL     OW16924   1.587   0.779   9.118
 1862SOL    HW116925   1.495   0.817   9.113
 1862SOL    HW216926   1.647   0.826   9.053
 1863SOL     OW16927   0.504   0.050   9.188
 1863SOL    HW116928   0.462  -0.007   9.118
 1863SOL    HW216929   0.438   0.119   9.220
 1864SOL     OW16930   0.573   0.870   8.477
 1864SOL    HW116931   0.617   0.959   8.468
 1864SOL    HW216932   0.510   0.870   8.554
 1865SOL     OW16933   1.360   0.862   8.493
 1865SOL    HW116934   1.285   0.862   8.427
 1865SOL    HW216935   1.397   0.770   8.502
 1866SOL     OW16936   1.209   0.525   7.723
 1866SOL    HW116937   1.222   0.441   7.777
 1866SOL    HW216938   1.180   0.599   7.783
 1867SOL     OW16939   0.307   0.213   8.679
 1867SOL    HW116940   0.284   0.250   8.769
 1867SOL    HW216941   0.277   0.118   8.673
 1868SOL     OW16942   0.037   1.310   8.730
 1868SOL    HW116943   0.090   1.261   8.798
 1868SOL    HW216944   0.059   1.408   8.735
 1869SOL     OW16945   0.732   0.634   8.512
 1869SOL    HW116946   0.791   0.608   8.436
 1869SOL    HW216947   0.704   0.730   8.501
 1870SOL     OW16948   1.728   0.935   9.302
 1870SOL    HW116949   1.682   0.928   9.213
 1870SOL    HW216950   1.666   0.979   9.368
 1871SOL     OW16951   0.307   0.063   8.066
 1871SOL    HW116952   0.296   0.157   8.099
 1871SOL    HW216953   0.302   0.000   8.143
 1872SOL     OW16954   1.622   0.367   7.822
 1872SOL    HW116955   1.624   0.291   7.886
 1872SOL    HW216956   1.574   0.444   7.862
 1873SOL     OW16957   1.023   0.766   8.414
 1873SOL    HW116958   1.038   0.787   8.510
 1873SOL    HW216959   0.993   0.671   8.405
 1874SOL     OW16960   0.980   1.573   9.148
 1874SOL    HW116961   0.960   1.617   9.060
 1874SOL    HW216962   1.019   1.482   9.132
 1875SOL     OW16963   0.350   0.898   9.252
 1875SOL    HW116964   0.426   0.942   9.300
 1875SOL    HW216965   0.385   0.851   9.170
 1876SOL     OW16966   1.540   0.274   7.573
 1876SOL    HW116967   1.479   0.199   7.596
 1876SOL    HW216968   1.562   0.326   7.656
 1877SOL     OW16969   1.303   0.838   7.490
 1877SOL    HW116970   1.337   0.745   7.505
 1877SOL    HW216971   1.321   0.865   7.395
 1878SOL     OW16972   1.068   1.333   8.297
 1878SOL    HW116973   1.075   1.249   8.242
 1878SOL    HW216974   1.130   1.402   8.261
 1879SOL     OW16975   0.319   0.810   8.397
 1879SOL    HW116976   0.412   0.846   8.402
 1879SOL    HW216977   0.313   0.725   8.449
 1880SOL     OW16978   0.339   0.509   8.454
 1880SOL    HW116979   0.287   0.426   8.437
 1880SOL    HW216980   0.416   0.514   8.390
 1881SOL     OW16981   1.138   0.380   9.126
 1881SOL    HW116982   1.093   0.443   9.190
 1881SOL    HW216983   1.231   0.411   9.109
 1882SOL     OW16984   1.160   0.207   8.925
 1882SOL    HW116985   1.160   0.271   9.002
 1882SOL    HW216986   1.188   0.255   8.842
 1883SOL     OW16987   0.008   1.326   7.648
 1883SOL    HW116988  -0.085   1.347   7.617
 1883SOL    HW216989   0.018   1.227   7.661
 1884SOL     OW16990   0.088   1.801   8.375
 1884SOL    HW116991   0.046   1.715   8.348
 1884SOL    HW216992   0.182   1.804   8.341
 1885SOL     OW16993   0.504   1.568   8.358
 1885SOL    HW116994   0.570   1.642   8.367
 1885SOL    HW216995   0.548   1.489   8.316
 1886SOL     OW16996   1.002   0.796   8.686
 1886SOL    HW116997   1.043   0.764   8.772
 1886SOL    HW216998   0.906   0.769   8.683
 1887SOL     OW16999   0.040   0.544   8.562
 1887SOL    HW117000   0.125   0.511   8.521
 1887SOL    HW217001   0.053   0.559   8.660
 1888SOL     OW17002   0.189   0.520   9.170
 1888SOL    HW117003   0.248   0.480   9.100
 1888SOL    HW217004   0.131   0.591   9.129
 1889SOL     OW17005   1.369   0.950   9.108
 1889SOL    HW117006   1.408   1.039   9.128
 1889SOL    HW217007   1.379   0.930   9.011
 1890SOL     OW17008   0.815   0.572   7.773
 1890SOL    HW117009   0.822   0.483   7.727
 1890SOL    HW217010   0.721   0.606   7.765
 1891SOL     OW17011   1.657   0.604   8.654
 1891SOL    HW117012   1.619   0.535   8.716
 1891SOL    HW217013   1.739   0.568   8.610
 1892SOL     OW17014   0.252   1.564   9.192
 1892SOL    HW117015   0.222   1.621   9.268
 1892SOL    HW217016   0.245   1.467   9.218
 1893SOL     OW17017   0.671   0.464   8.717
 1893SOL    HW117018   0.637   0.375   8.687
 1893SOL    HW217019   0.697   0.518   8.637
 1894SOL     OW17020   0.930   1.678   8.913
 1894SOL    HW117021   0.906   1.660   8.818
 1894SOL    HW217022   0.960   1.772   8.923
 1895SOL     OW17023   0.473   0.500   7.639
 1895SOL    HW117024   0.534   0.580   7.643
 1895SOL    HW217025   0.378   0.531   7.646
 1896SOL     OW17026   0.159   1.137   8.914
 1896SOL    HW117027   0.181   1.076   8.990
 1896SOL    HW217028   0.169   1.088   8.828
 1897SOL     OW17029   1.347   1.059   8.682
 1897SOL    HW117030   1.371   0.996   8.608
 1897SOL    HW217031   1.257   1.099   8.664
 1898SOL     OW17032   1.302   0.855   7.757
 1898SOL    HW117033   1.216   0.824   7.799
 1898SOL    HW217034   1.298   0.841   7.658
 1899SOL     OW17035   1.759   1.747   8.602
 1899SOL    HW117036   1.820   1.777   8.529
 1899SOL    HW217037   1.721   1.658   8.580
 1900SOL     OW17038   1.252   1.731   8.576
 1900SOL    HW117039   1.336   1.736   8.522
 1900SOL    HW217040   1.229   1.635   8.594
 1901SOL     OW17041   0.083   1.258   8.470
 1901SOL    HW117042   0.078   1.257   8.570
 1901SOL    HW217043   0.000   1.217   8.432
 1902SOL     OW17044   0.688   1.662   9.164
 1902SOL    HW117045   0.632   1.743   9.173
 1902SOL    HW217046   0.740   1.666   9.078
 1903SOL     OW17047   1.726   0.135   7.971
 1903SOL    HW117048   1.799   0.118   7.904
 1903SOL    HW217049   1.695   0.048   8.009
 1904SOL     OW17050   1.388   1.573   7.925
 1904SOL    HW117051   1.455   1.585   7.851
 1904SOL    HW217052   1.348   1.662   7.948
 1905SOL     OW17053   0.130   1.794   9.299
 1905SOL    HW117054   0.089   1.720   9.352
 1905SOL    HW217055   0.194   1.845   9.357
 1906SOL     OW17056   1.280   0.927   8.120
 1906SOL    HW117057   1.340   0.846   8.122
 1906SOL    HW217058   1.320   0.996   8.060
 1907SOL     OW17059   0.830   1.273   8.870
 1907SOL    HW117060   0.825   1.306   8.965
 1907SOL    HW217061   0.744   1.292   8.824
 1908SOL     OW17062   0.672   1.616   7.602
 1908SOL    HW117063   0.681   1.626   7.503
 1908SOL    HW217064   0.632   1.527   7.623
 1909SOL     OW17065   1.650   1.720   8.842
 1909SOL    HW117066   1.703   1.730   8.758
 1909SOL    HW217067   1.623   1.810   8.876
 1910SOL     OW17068   1.841   0.175   8.411
 1910SOL    HW117069   1.880   0.090   8.375
 1910SOL    HW217070   1.743   0.177   8.392
 1911SOL     OW17071   0.263   0.326   8.168
 1911SOL    HW117072   0.184   0.377   8.134
 1911SOL    HW217073   0.254   0.311   8.266
 1912SOL     OW17074   1.194   1.612   7.479
 1912SOL    HW117075   1.200   1.519   7.516
 1912SOL    HW217076   1.135   1.612   7.399
 1913SOL     OW17077   0.822   1.002   8.820
 1913SOL    HW117078   0.862   1.001   8.728
 1913SOL    HW217079   0.832   1.094   8.860
 1914SOL     OW17080   0.916   0.910   7.739
 1914SOL    HW117081   0.979   0.948   7.671
 1914SOL    HW217082   0.956   0.827   7.778
 1915SOL     OW17083   1.504   1.607   7.492
 1915SOL    HW117084   1.412   1.644   7.499
 1915SOL    HW217085   1.542   1.627   7.402
 1916SOL     OW17086   0.372   1.288   8.938
 1916SOL    HW117087   0.359   1.381   8.904
 1916SOL    HW217088   0.288   1.236   8.925
 1917SOL     OW17089   1.614   1.292   8.737
 1917SOL    HW117090   1.674   1.295   8.817
 1917SOL    HW217091   1.539   1.356   8.750
 1918SOL     OW17092   1.039   1.098   8.144
 1918SOL    HW117093   0.969   1.051   8.198
 1918SOL    HW217094   1.098   1.030   8.101
 1919SOL     OW17095   1.014   0.236   8.419
 1919SOL    HW117096   1.006   0.200   8.326
 1919SOL    HW217097   1.012   0.160   8.484
 1920SOL     OW17098   0.590   1.487   7.939
 1920SOL    HW117099   0.632   1.429   7.869
 1920SOL    HW217100   0.546   1.566   7.895
 1921SOL     OW17101   0.255   1.348   7.738
 1921SOL    HW117102   0.159   1.349   7.711
 1921SOL    HW217103   0.267   1.401   7.822
 1922SOL     OW17104   0.105   1.013   9.174
 1922SOL    HW117105   0.028   0.980   9.228
 1922SOL    HW217106   0.190   0.983   9.216
 1923SOL     OW17107   0.672   0.203   8.937
 1923SOL    HW117108   0.762   0.187   8.897
 1923SOL    HW217109   0.680   0.208   9.036
 1924SOL     OW17110   0.075   0.345   7.481
 1924SOL    HW117111  -0.017   0.317   7.452
 1924SOL    HW217112   0.106   0.422   7.425
 1925SOL     OW17113   1.440   0.856   8.846
 1925SOL    HW117114   1.383   0.908   8.783
 1925SOL    HW217115   1.536   0.868   8.822
 1926SOL     OW17116   0.072   0.166   7.766
 1926SOL    HW117117   0.055   0.249   7.712
 1926SOL    HW217118   0.162   0.129   7.744
 1927SOL     OW17119   1.183   1.335   7.567
 1927SOL    HW117120   1.084   1.324   7.569
 1927SOL    HW217121   1.217   1.350   7.660
 1928SOL     OW17122   0.613   0.842   8.879
 1928SOL    HW117123   0.669   0.923   8.862
 1928SOL    HW217124   0.672   0.762   8.882
 1929SOL     OW17125   1.493   1.767   8.407
 1929SOL    HW117126   1.526   1.831   8.338
 1929SOL    HW217127   1.559   1.761   8.482
 1930SOL     OW17128   0.716   0.565   9.156
 1930SOL    HW117129   0.735   0.630   9.230
 1930SOL    HW217130   0.776   0.485   9.165
 1931SOL     OW17131   1.450   1.220   9.081
 1931SOL    HW117132   1.441   1.210   9.180
 1931SOL    HW217133   1.546   1.213   9.055
 1932SOL     OW17134   0.390   1.741   9.008
 1932SOL    HW117135   0.299   1.782   9.006
 1932SOL    HW217136   0.383   1.647   9.040
 1933SOL     OW17137   1.674   0.883   8.702
 1933SOL    HW117138   1.647   0.794   8.665
 1933SOL    HW217139   1.675   0.951   8.629
 1934SOL     OW17140   1.225   0.325   7.897
 1934SOL    HW117141   1.290   0.251   7.886
 1934SOL    HW217142   1.245   0.375   7.981
 1935SOL     OW17143   0.594   0.745   8.100
 1935SOL    HW117144   0.644   0.830   8.081
 1935SOL    HW217145   0.506   0.747   8.052
 1936SOL     OW17146   1.730   0.934   8.965
 1936SOL    HW117147   1.768   1.025   8.980
 1936SOL    HW217148   1.722   0.917   8.866
 1937SOL     OW17149   0.859   1.374   7.464
 1937SOL    HW117150   0.813   1.389   7.552
 1937SOL    HW217151   0.903   1.459   7.434
 1938SOL     OW17152   0.661   1.790   8.401
 1938SOL    HW117153   0.615   1.878   8.388
 1938SOL    HW217154   0.760   1.802   8.394
 1939SOL     OW17155   0.859   0.956   8.309
 1939SOL    HW117156   0.913   0.887   8.357
 1939SOL    HW217157   0.827   1.025   8.375
 1940SOL     OW17158   1.083   0.984   7.535
 1940SOL    HW117159   1.060   1.037   7.453
 1940SOL    HW217160   1.164   0.928   7.516
 1941SOL     OW17161   1.861   1.569   8.299
 1941SOL    HW117162   1.790   1.557   8.229
 1941SOL    HW217163   1.862   1.490   8.359
 1942SOL     OW17164   0.221   1.314   9.292
 1942SOL    HW117165   0.156   1.241   9.271
 1942SOL    HW217166   0.225   1.328   9.390
 1943SOL     OW17167   0.079   1.240   8.101
 1943SOL    HW117168   0.078   1.193   8.189
 1943SOL    HW217169   0.161   1.212   8.050
 1944SOL     OW17170   0.672   1.391   9.072
 1944SOL    HW117171   0.594   1.341   9.110
 1944SOL    HW217172   0.669   1.486   9.103
 1945SOL     OW17173   0.428   0.424   7.968
 1945SOL    HW117174   0.458   0.352   7.906
 1945SOL    HW217175   0.389   0.384   8.051
 1946SOL     OW17176   1.705   1.487   8.552
 1946SOL    HW117177   1.612   1.462   8.525
 1946SOL    HW217178   1.731   1.437   8.634
 1947SOL     OW17179   0.317   0.547   8.728
 1947SOL    HW117180   0.355   0.488   8.800
 1947SOL    HW217181   0.357   0.521   8.640
 1948SOL     OW17182   0.812   1.586   8.135
 1948SOL    HW117183   0.844   1.596   8.041
 1948SOL    HW217184   0.733   1.524   8.137
 1949SOL     OW17185   1.424   0.214   8.560
 1949SOL    HW117186   1.476   0.149   8.615
 1949SOL    HW217187   1.375   0.277   8.621
 1950SOL     OW17188   1.001   0.034   8.602
 1950SOL    HW117189   0.938  -0.038   8.571
 1950SOL    HW217190   1.094  -0.002   8.602
 1951SOL     OW17191   0.770   1.330   7.749
 1951SOL    HW117192   0.724   1.243   7.766
 1951SOL    HW217193   0.861   1.327   7.790
 1952SOL     OW17194   0.618   1.567   8.732
 1952SOL    HW117195   0.613   1.649   8.789
 1952SOL    HW217196   0.707   1.564   8.687
 1953SOL     OW17197   1.352   0.052   7.616
 1953SOL    HW117198   1.387   0.011   7.532
 1953SOL    HW217199   1.262   0.014   7.636
 1954SOL     OW17200   1.300   0.453   8.139
 1954SOL    HW117201   1.241   0.533   8.143
 1954SOL    HW217202   1.315   0.418   8.232
 1955SOL     OW17203   1.593   0.221   8.330
 1955SOL    HW117204   1.509   0.220   8.384
 1955SOL    HW217205   1.595   0.304   8.274
 1956SOL     OW17206   0.039   1.077   7.748
 1956SOL    HW117207   0.138   1.066   7.739
 1956SOL    HW217208  -0.001   0.991   7.780
 1957SOL     OW17209   0.875   1.646   7.785
 1957SOL    HW117210   0.798   1.611   7.731
 1957SOL    HW217211   0.843   1.717   7.847
 1958SOL     OW17212   0.230   0.628   9.423
 1958SOL    HW117213   0.137   0.626   9.460
 1958SOL    HW217214   0.231   0.589   9.331
 1959SOL     OW17215   0.225   0.275  10.306
 1959SOL    HW117216   0.260   0.258  10.398
 1959SOL    HW217217   0.137   0.230  10.294
 1960SOL     OW17218   0.019   0.368   9.957
 1960SOL    HW117219  -0.063   0.411   9.996
 1960SOL    HW217220  -0.009   0.295   9.894
 1961SOL     OW17221   0.569   1.275  10.475
 1961SOL    HW117222   0.476   1.268  10.438
 1961SOL    HW217223   0.580   1.364  10.519
 1962SOL     OW17224   1.135   0.703  10.027
 1962SOL    HW117225   1.192   0.781  10.002
 1962SOL    HW217226   1.075   0.729  10.103
 1963SOL     OW17227   1.755   0.607   9.541
 1963SOL    HW117228   1.743   0.594   9.442
 1963SOL    HW217229   1.725   0.526   9.590
 1964SOL     OW17230   0.768   1.144  10.333
 1964SOL    HW117231   0.690   1.161  10.393
 1964SOL    HW217232   0.802   1.231  10.297
 1965SOL     OW17233   0.685   1.012   9.975
 1965SOL    HW117234   0.754   0.996  10.045
 1965SOL    HW217235   0.612   1.069  10.013
 1966SOL     OW17236   0.686   1.161  11.113
 1966SOL    HW117237   0.746   1.240  11.127
 1966SOL    HW217238   0.600   1.192  11.072
 1967SOL     OW17239   0.231   1.713   9.793
 1967SOL    HW117240   0.265   1.790   9.847
 1967SOL    HW217241   0.275   1.713   9.703
 1968SOL     OW17242   0.230   1.434   9.848
 1968SOL    HW117243   0.204   1.530   9.848
 1968SOL    HW217244   0.159   1.380   9.893
 1969SOL     OW17245   0.240   1.091  10.196
 1969SOL    HW117246   0.254   1.007  10.248
 1969SOL    HW217247   0.185   1.155  10.251
 1970SOL     OW17248   0.606   0.964   9.433
 1970SOL    HW117249   0.613   1.048   9.379
 1970SOL    HW217250   0.652   0.977   9.521
 1971SOL     OW17251   1.594   0.114  10.790
 1971SOL    HW117252   1.576   0.181  10.718
 1971SOL    HW217253   1.591   0.160  10.879
 1972SOL     OW17254   0.122   0.643   9.873
 1972SOL    HW117255   0.077   0.555   9.890
 1972SOL    HW217256   0.121   0.697   9.957
 1973SOL     OW17257   0.027   1.596   9.427
 1973SOL    HW117258   0.008   1.500   9.448
 1973SOL    HW217259  -0.006   1.654   9.502
 1974SOL     OW17260   1.641   1.108   9.742
 1974SOL    HW117261   1.727   1.110   9.690
 1974SOL    HW217262   1.655   1.155   9.830
 1975SOL     OW17263   0.113   0.737  10.907
 1975SOL    HW117264   0.201   0.724  10.952
 1975SOL    HW217265   0.100   0.834  10.885
 1976SOL     OW17266   0.613   1.365  10.036
 1976SOL    HW117267   0.564   1.278  10.045
 1976SOL    HW217268   0.590   1.408   9.949
 1977SOL     OW17269   0.197   0.976  10.574
 1977SOL    HW117270   0.286   0.931  10.560
 1977SOL    HW217271   0.124   0.911  10.555
 1978SOL     OW17272   1.525   0.999   9.500
 1978SOL    HW117273   1.462   0.923   9.513
 1978SOL    HW217274   1.573   1.017   9.586
 1979SOL     OW17275   1.466   1.417  10.263
 1979SOL    HW117276   1.407   1.423  10.343
 1979SOL    HW217277   1.451   1.329  10.217
 1980SOL     OW17278   0.598   0.729   9.580
 1980SOL    HW117279   0.622   0.798   9.512
 1980SOL    HW217280   0.520   0.762   9.634
 1981SOL     OW17281   1.394   0.469  10.984
 1981SOL    HW117282   1.374   0.512  11.072
 1981SOL    HW217283   1.472   0.407  10.993
 1982SOL     OW17284   0.973   0.890  10.882
 1982SOL    HW117285   1.019   0.806  10.853
 1982SOL    HW217286   0.917   0.924  10.807
 1983SOL     OW17287   1.041   0.701   9.739
 1983SOL    HW117288   1.067   0.697   9.835
 1983SOL    HW217289   0.956   0.650   9.725
 1984SOL     OW17290   0.076   0.811  10.099
 1984SOL    HW117291   0.175   0.799  10.108
 1984SOL    HW217292   0.052   0.906  10.120
 1985SOL     OW17293   1.719   0.585  11.141
 1985SOL    HW117294   1.693   0.674  11.105
 1985SOL    HW217295   1.717   0.517  11.068
 1986SOL     OW17296   1.362   1.144   9.855
 1986SOL    HW117297   1.445   1.115   9.807
 1986SOL    HW217298   1.313   1.211   9.799
 1987SOL     OW17299   0.351   1.801  10.163
 1987SOL    HW117300   0.401   1.715  10.169
 1987SOL    HW217301   0.416   1.878  10.160
 1988SOL     OW17302   1.227   1.550  10.816
 1988SOL    HW117303   1.233   1.473  10.880
 1988SOL    HW217304   1.175   1.524  10.736
 1989SOL     OW17305   0.321   0.943   9.552
 1989SOL    HW117306   0.403   0.982   9.510
 1989SOL    HW217307   0.294   0.861   9.503
 1990SOL     OW17308   1.458   0.735  10.038
 1990SOL    HW117309   1.453   0.670  10.113
 1990SOL    HW217310   1.538   0.794  10.051
 1991SOL     OW17311   1.111   1.776   9.547
 1991SOL    HW117312   1.051   1.714   9.597
 1991SOL    HW217313   1.142   1.732   9.462
 1992SOL     OW17314   0.202   0.285  10.808
 1992SOL    HW117315   0.122   0.345  10.795
 1992SOL    HW217316   0.192   0.236  10.894
 1993SOL     OW17317   1.632   1.377   9.391
 1993SOL    HW117318   1.600   1.471   9.381
 1993SOL    HW217319   1.556   1.314   9.379
 1994SOL     OW17320   0.464   1.743   9.633
 1994SOL    HW117321   0.497   1.782   9.719
 1994SOL    HW217322   0.540   1.736   9.568
 1995SOL     OW17323   0.940   1.698  10.214
 1995SOL    HW117324   1.020   1.641  10.235
 1995SOL    HW217325   0.891   1.658  10.137
 1996SOL     OW17326   0.382   0.700   9.790
 1996SOL    HW117327   0.427   0.610   9.787
 1996SOL    HW217328   0.288   0.689   9.823
 1997SOL     OW17329   1.547   0.222  11.039
 1997SOL    HW117330   1.542   0.259  11.131
 1997SOL    HW217331   1.475   0.153  11.027
 1998SOL     OW17332   0.888   1.514  10.505
 1998SOL    HW117333   0.865   1.489  10.411
 1998SOL    HW217334   0.949   1.445  10.544
 1999SOL     OW17335   1.351   0.590  10.743
 1999SOL    HW117336   1.379   0.547  10.828
 1999SOL    HW217337   1.376   0.686  10.744
 2000SOL     OW17338   0.803   1.402  10.234
 2000SOL    HW117339   0.893   1.416  10.192
 2000SOL    HW217340   0.732   1.404  10.163
 2001SOL     OW17341   0.922   0.503  10.209
 2001SOL    HW117342   0.897   0.494  10.113
 2001SOL    HW217343   0.970   0.421  10.240
 2002SOL     OW17344   0.539   0.064   9.822
 2002SOL    HW117345   0.458   0.065   9.880
 2002SOL    HW217346   0.542   0.147   9.767
 2003SOL     OW17347   1.434   1.188   9.351
 2003SOL    HW117348   1.466   1.112   9.408
 2003SOL    HW217349   1.342   1.215   9.381
 2004SOL     OW17350   0.297   0.035   9.481
 2004SOL    HW117351   0.346   0.119   9.460
 2004SOL    HW217352   0.359  -0.030   9.526
 2005SOL     OW17353   1.032   0.549   9.326
 2005SOL    HW117354   0.991   0.631   9.287
 2005SOL    HW217355   1.096   0.575   9.399
 2006SOL     OW17356   0.078   0.556  10.696
 2006SOL    HW117357   0.170   0.555  10.655
 2006SOL    HW217358   0.072   0.630  10.763
 2007SOL     OW17359   0.866   0.454   9.952
 2007SOL    HW117360   0.834   0.526   9.890
 2007SOL    HW217361   0.890   0.373   9.899
 2008SOL     OW17362   1.017   0.039  10.063
 2008SOL    HW117363   0.945   0.044   9.994
 2008SOL    HW217364   0.993  -0.030  10.132
 2009SOL     OW17365   0.488   1.385   9.484
 2009SOL    HW117366   0.401   1.370   9.531
 2009SOL    HW217367   0.471   1.411   9.389
 2010SOL     OW17368   1.390   0.575   9.388
 2010SOL    HW117369   1.336   0.554   9.469
 2010SOL    HW217370   1.481   0.534   9.397
 2011SOL     OW17371   0.527   0.256   9.638
 2011SOL    HW117372   0.554   0.197   9.563
 2011SOL    HW217373   0.527   0.351   9.607
 2012SOL     OW17374   1.592   1.629  10.935
 2012SOL    HW117375   1.619   1.663  10.845
 2012SOL    HW217376   1.671   1.591  10.981
 2013SOL     OW17377   0.980   1.116  11.029
 2013SOL    HW117378   0.881   1.122  11.039
 2013SOL    HW217379   1.003   1.036  10.973
 2014SOL     OW17380   0.705   1.050   9.678
 2014SOL    HW117381   0.691   1.057   9.777
 2014SOL    HW217382   0.789   0.999   9.660
 2015SOL     OW17383   0.410   0.813  10.561
 2015SOL    HW117384   0.496   0.825  10.611
 2015SOL    HW217385   0.368   0.726  10.588
 2016SOL     OW17386   0.367   1.100   9.811
 2016SOL    HW117387   0.360   1.183   9.755
 2016SOL    HW217388   0.371   1.020   9.751
 2017SOL     OW17389   0.566   0.537  10.175
 2017SOL    HW117390   0.578   0.603  10.101
 2017SOL    HW217391   0.612   0.571  10.258
 2018SOL     OW17392   1.252   1.348   9.698
 2018SOL    HW117393   1.302   1.425   9.738
 2018SOL    HW217394   1.157   1.350   9.730
 2019SOL     OW17395   1.582   0.639   9.782
 2019SOL    HW117396   1.551   0.700   9.855
 2019SOL    HW217397   1.632   0.691   9.713
 2020SOL     OW17398   0.402   0.751  10.908
 2020SOL    HW117399   0.470   0.806  10.861
 2020SOL    HW217400   0.442   0.663  10.935
 2021SOL     OW17401   0.573   0.870  10.339
 2021SOL    HW117402   0.617   0.959  10.330
 2021SOL    HW217403   0.510   0.870  10.416
 2022SOL     OW17404   1.209   0.525   9.585
 2022SOL    HW117405   1.222   0.441   9.639
 2022SOL    HW217406   1.180   0.599   9.645
 2023SOL     OW17407   0.307   0.213  10.541
 2023SOL    HW117408   0.284   0.250  10.631
 2023SOL    HW217409   0.277   0.118  10.535
 2024SOL     OW17410   0.732   0.634  10.374
 2024SOL    HW117411   0.791   0.608  10.298
 2024SOL    HW217412   0.704   0.730  10.363
 2025SOL     OW17413   1.728   0.935  11.164
 2025SOL    HW117414   1.682   0.928  11.075
 2025SOL    HW217415   1.666   0.979  11.230
 2026SOL     OW17416   0.307   0.063   9.928
 2026SOL    HW117417   0.296   0.157   9.961
 2026SOL    HW217418   0.302   0.000  10.005
 2027SOL     OW17419   1.622   0.367   9.684
 2027SOL    HW117420   1.624   0.291   9.748
 2027SOL    HW217421   1.574   0.444   9.724
 2028SOL     OW17422   1.859   1.518  10.915
 2028SOL    HW117423   1.873   1.545  10.820
 2028SOL    HW217424   1.942   1.540  10.968
 2029SOL     OW17425   1.303   0.838   9.352
 2029SOL    HW117426   1.337   0.745   9.367
 2029SOL    HW217427   1.321   0.865   9.257
 2030SOL     OW17428   0.319   0.810  10.259
 2030SOL    HW117429   0.412   0.846  10.264
 2030SOL    HW217430   0.313   0.725  10.311
 2031SOL     OW17431   0.339   0.509  10.316
 2031SOL    HW117432   0.287   0.426  10.299
 2031SOL    HW217433   0.416   0.514  10.252
 2032SOL     OW17434   1.160   0.207  10.787
 2032SOL    HW117435   1.160   0.271  10.864
 2032SOL    HW217436   1.188   0.255  10.704
 2033SOL     OW17437   0.008   1.326   9.510
 2033SOL    HW117438  -0.085   1.347   9.479
 2033SOL    HW217439   0.018   1.227   9.523
 2034SOL     OW17440   0.504   1.568  10.220
 2034SOL    HW117441   0.570   1.642  10.229
 2034SOL    HW217442   0.548   1.489  10.178
 2035SOL     OW17443   0.040   0.544  10.424
 2035SOL    HW117444   0.125   0.511  10.383
 2035SOL    HW217445   0.053   0.559  10.522
 2036SOL     OW17446   0.189   0.520  11.032
 2036SOL    HW117447   0.248   0.480  10.962
 2036SOL    HW217448   0.131   0.591  10.991
 2037SOL     OW17449   0.815   0.572   9.635
 2037SOL    HW117450   0.822   0.483   9.589
 2037SOL    HW217451   0.721   0.606   9.627
 2038SOL     OW17452   1.657   0.604  10.516
 2038SOL    HW117453   1.619   0.535  10.578
 2038SOL    HW217454   1.739   0.568  10.472
 2039SOL     OW17455   0.671   0.464  10.579
 2039SOL    HW117456   0.637   0.375  10.549
 2039SOL    HW217457   0.697   0.518  10.499
 2040SOL     OW17458   0.930   1.678  10.775
 2040SOL    HW117459   0.906   1.660  10.680
 2040SOL    HW217460   0.960   1.772  10.785
 2041SOL     OW17461   0.473   0.500   9.501
 2041SOL    HW117462   0.534   0.580   9.505
 2041SOL    HW217463   0.378   0.531   9.508
 2042SOL     OW17464   1.302   0.855   9.619
 2042SOL    HW117465   1.216   0.824   9.661
 2042SOL    HW217466   1.298   0.841   9.520
 2043SOL     OW17467   1.252   1.731  10.438
 2043SOL    HW117468   1.336   1.736  10.384
 2043SOL    HW217469   1.229   1.635  10.456
 2044SOL     OW17470   0.083   1.258  10.332
 2044SOL    HW117471   0.078   1.257  10.432
 2044SOL    HW217472   0.000   1.217  10.294
 2045SOL     OW17473   0.688   1.662  11.026
 2045SOL    HW117474   0.632   1.743  11.035
 2045SOL    HW217475   0.740   1.666  10.940
 2046SOL     OW17476   0.130   1.794  11.161
 2046SOL    HW117477   0.089   1.720  11.214
 2046SOL    HW217478   0.194   1.845  11.219
 2047SOL     OW17479   1.280   0.927   9.982
 2047SOL    HW117480   1.340   0.846   9.984
 2047SOL    HW217481   1.320   0.996   9.922
 2048SOL     OW17482   0.830   1.273  10.732
 2048SOL    HW117483   0.825   1.306  10.827
 2048SOL    HW217484   0.744   1.292  10.686
 2049SOL     OW17485   0.672   1.616   9.464
 2049SOL    HW117486   0.681   1.626   9.365
 2049SOL    HW217487   0.632   1.527   9.485
 2050SOL     OW17488   1.650   1.720  10.704
 2050SOL    HW117489   1.703   1.730  10.620
 2050SOL    HW217490   1.623   1.810  10.738
 2051SOL     OW17491   0.263   0.326  10.030
 2051SOL    HW117492   0.184   0.377   9.996
 2051SOL    HW217493   0.254   0.311  10.128
 2052SOL     OW17494   1.194   1.612   9.341
 2052SOL    HW117495   1.200   1.519   9.378
 2052SOL    HW217496   1.135   1.612   9.261
 2053SOL     OW17497   0.822   1.002  10.682
 2053SOL    HW117498   0.862   1.001  10.590
 2053SOL    HW217499   0.832   1.094  10.722
 2054SOL     OW17500   0.916   0.910   9.601
 2054SOL    HW117501   0.979   0.948   9.533
 2054SOL    HW217502   0.956   0.827   9.640
 2055SOL     OW17503   1.504   1.607   9.354
 2055SOL    HW117504   1.412   1.644   9.361
 2055SOL    HW217505   1.542   1.627   9.264
 2056SOL     OW17506   1.014   0.236  10.281
 2056SOL    HW117507   1.006   0.200  10.188
 2056SOL    HW217508   1.012   0.160  10.346
 2057SOL     OW17509   0.590   1.487   9.801
 2057SOL    HW117510   0.632   1.429   9.731
 2057SOL    HW217511   0.546   1.566   9.757
 2058SOL     OW17512   1.709   0.385  10.691
 2058SOL    HW117513   1.782   0.454  10.695
 2058SOL    HW217514   1.737   0.310  10.632
 2059SOL     OW17515   0.255   1.348   9.600
 2059SOL    HW117516   0.159   1.349   9.573
 2059SOL    HW217517   0.267   1.401   9.684
 2060SOL     OW17518   0.672   0.203  10.799
 2060SOL    HW117519   0.762   0.187  10.759
 2060SOL    HW217520   0.680   0.208  10.898
 2061SOL     OW17521   0.075   0.345   9.343
 2061SOL    HW117522  -0.017   0.317   9.314
 2061SOL    HW217523   0.106   0.422   9.287
 2062SOL     OW17524   1.440   0.856  10.708
 2062SOL    HW117525   1.383   0.908  10.645
 2062SOL    HW217526   1.536   0.868  10.684
 2063SOL     OW17527   0.072   0.166   9.628
 2063SOL    HW117528   0.055   0.249   9.574
 2063SOL    HW217529   0.162   0.129   9.606
 2064SOL     OW17530   1.183   1.335   9.429
 2064SOL    HW117531   1.084   1.324   9.431
 2064SOL    HW217532   1.217   1.350   9.522
 2065SOL     OW17533   0.613   0.842  10.741
 2065SOL    HW117534   0.669   0.923  10.724
 2065SOL    HW217535   0.672   0.762  10.744
 2066SOL     OW17536   1.674   0.883  10.564
 2066SOL    HW117537   1.647   0.794  10.527
 2066SOL    HW217538   1.675   0.951  10.491
 2067SOL     OW17539   1.225   0.325   9.759
 2067SOL    HW117540   1.290   0.251   9.748
 2067SOL    HW217541   1.245   0.375   9.843
 2068SOL     OW17542   0.594   0.745   9.962
 2068SOL    HW117543   0.644   0.830   9.943
 2068SOL    HW217544   0.506   0.747   9.914
 2069SOL     OW17545   1.777   0.342  10.952
 2069SOL    HW117546   1.760   0.373  10.858
 2069SOL    HW217547   1.693   0.305  10.990
 2070SOL     OW17548   0.859   1.374   9.326
 2070SOL    HW117549   0.813   1.389   9.414
 2070SOL    HW217550   0.903   1.459   9.296
 2071SOL     OW17551   0.859   0.956  10.171
 2071SOL    HW117552   0.913   0.887  10.219
 2071SOL    HW217553   0.827   1.025  10.237
 2072SOL     OW17554   1.083   0.984   9.397
 2072SOL    HW117555   1.060   1.037   9.315
 2072SOL    HW217556   1.164   0.928   9.378
 2073SOL     OW17557   0.079   1.240   9.963
 2073SOL    HW117558   0.078   1.193  10.051
 2073SOL    HW217559   0.161   1.212   9.912
 2074SOL     OW17560   0.672   1.391  10.934
 2074SOL    HW117561   0.594   1.341  10.972
 2074SOL    HW217562   0.669   1.486  10.965
 2075SOL     OW17563   0.428   0.424   9.830
 2075SOL    HW117564   0.458   0.352   9.768
 2075SOL    HW217565   0.389   0.384   9.913
 2076SOL     OW17566   0.317   0.547  10.590
 2076SOL    HW117567   0.355   0.488  10.662
 2076SOL    HW217568   0.357   0.521  10.502
 2077SOL     OW17569   0.812   1.586   9.997
 2077SOL    HW117570   0.844   1.596   9.903
 2077SOL    HW217571   0.733   1.524   9.999
 2078SOL     OW17572   1.001   0.034  10.464
 2078SOL    HW117573   0.938  -0.038  10.433
 2078SOL    HW217574   1.094  -0.002  10.464
 2079SOL     OW17575   0.770   1.330   9.611
 2079SOL    HW117576   0.724   1.243   9.628
 2079SOL    HW217577   0.861   1.327   9.652
 2080SOL     OW17578   0.039   1.077   9.610
 2080SOL    HW117579   0.138   1.066   9.601
 2080SOL    HW217580  -0.001   0.991   9.642
 2081SOL     OW17581   0.875   1.646   9.647
 2081SOL    HW117582   0.798   1.611   9.593
 2081SOL    HW217583   0.843   1.717   9.709
 2082SOL     OW17584   0.019   0.368  11.819
 2082SOL    HW117585  -0.063   0.411  11.858
 2082SOL    HW217586  -0.009   0.295  11.756
 2083SOL     OW17587   0.850   0.798  12.995
 2083SOL    HW117588   0.846   0.874  13.060
 2083SOL    HW217589   0.872   0.834  12.904
 2084SOL     OW17590   1.460   1.505  12.511
 2084SOL    HW117591   1.484   1.599  12.537
 2084SOL    HW217592   1.444   1.451  12.593
 2085SOL     OW17593   0.438   0.392  12.671
 2085SOL    HW117594   0.520   0.336  12.680
 2085SOL    HW217595   0.357   0.334  12.675
 2086SOL     OW17596   0.606   0.964  11.295
 2086SOL    HW117597   0.613   1.048  11.241
 2086SOL    HW217598   0.652   0.977  11.383
 2087SOL     OW17599   1.594   0.114  12.652
 2087SOL    HW117600   1.576   0.181  12.580
 2087SOL    HW217601   1.591   0.160  12.741
 2088SOL     OW17602   1.842   1.767  11.531
 2088SOL    HW117603   1.896   1.738  11.611
 2088SOL    HW217604   1.872   1.857  11.502
 2089SOL     OW17605   1.187   1.792  12.788
 2089SOL    HW117606   1.211   1.852  12.712
 2089SOL    HW217607   1.194   1.697  12.758
 2090SOL     OW17608   0.317   0.251  12.973
 2090SOL    HW117609   0.388   0.322  12.979
 2090SOL    HW217610   0.229   0.290  13.001
 2091SOL     OW17611   0.807   0.605  12.637
 2091SOL    HW117612   0.760   0.602  12.726
 2091SOL    HW217613   0.756   0.550  12.571
 2092SOL     OW17614   1.394   0.469  12.846
 2092SOL    HW117615   1.374   0.512  12.934
 2092SOL    HW217616   1.472   0.407  12.855
 2093SOL     OW17617   0.973   0.890  12.744
 2093SOL    HW117618   1.019   0.806  12.715
 2093SOL    HW217619   0.917   0.924  12.669
 2094SOL     OW17620   0.991   0.410  12.414
 2094SOL    HW117621   0.914   0.444  12.468
 2094SOL    HW217622   0.957   0.359  12.335
 2095SOL     OW17623   1.041   0.701  11.601
 2095SOL    HW117624   1.067   0.697  11.697
 2095SOL    HW217625   0.956   0.650  11.587
 2096SOL     OW17626   0.351   1.801  12.025
 2096SOL    HW117627   0.401   1.715  12.031
 2096SOL    HW217628   0.416   1.878  12.022
 2097SOL     OW17629   1.227   1.550  12.678
 2097SOL    HW117630   1.233   1.473  12.742
 2097SOL    HW217631   1.175   1.524  12.598
 2098SOL     OW17632   0.249   1.785  12.413
 2098SOL    HW117633   0.306   1.720  12.463
 2098SOL    HW217634   0.233   1.752  12.320
 2099SOL     OW17635   0.781   0.264  12.921
 2099SOL    HW117636   0.848   0.203  12.964
 2099SOL    HW217637   0.708   0.283  12.986
 2100SOL     OW17638   0.888   1.514  12.367
 2100SOL    HW117639   0.865   1.489  12.273
 2100SOL    HW217640   0.949   1.445  12.406
 2101SOL     OW17641   1.351   0.590  12.605
 2101SOL    HW117642   1.379   0.547  12.690
 2101SOL    HW217643   1.376   0.686  12.606
 2102SOL     OW17644   1.754   1.223  12.760
 2102SOL    HW117645   1.845   1.184  12.747
 2102SOL    HW217646   1.762   1.319  12.784
 2103SOL     OW17647   1.592   1.629  12.797
 2103SOL    HW117648   1.619   1.663  12.707
 2103SOL    HW217649   1.671   1.591  12.843
 2104SOL     OW17650   0.064   1.564  12.503
 2104SOL    HW117651   0.018   1.646  12.469
 2104SOL    HW217652   0.162   1.583  12.512
 2105SOL     OW17653   0.573   0.870  12.201
 2105SOL    HW117654   0.617   0.959  12.192
 2105SOL    HW217655   0.510   0.870  12.278
 2106SOL     OW17656   0.732   0.634  12.236
 2106SOL    HW117657   0.791   0.608  12.160
 2106SOL    HW217658   0.704   0.730  12.225
 2107SOL     OW17659   1.540   0.274  11.297
 2107SOL    HW117660   1.479   0.199  11.320
 2107SOL    HW217661   1.562   0.326  11.380
 2108SOL     OW17662   0.319   0.810  12.121
 2108SOL    HW117663   0.412   0.846  12.126
 2108SOL    HW217664   0.313   0.725  12.173
 2109SOL     OW17665   0.339   0.509  12.178
 2109SOL    HW117666   0.287   0.426  12.161
 2109SOL    HW217667   0.416   0.514  12.114
 2110SOL     OW17668   0.088   1.801  12.099
 2110SOL    HW117669   0.046   1.715  12.072
 2110SOL    HW217670   0.182   1.804  12.065
 2111SOL     OW17671   1.002   0.796  12.410
 2111SOL    HW117672   1.043   0.764  12.496
 2111SOL    HW217673   0.906   0.769  12.407
 2112SOL     OW17674   0.040   0.544  12.286
 2112SOL    HW117675   0.125   0.511  12.245
 2112SOL    HW217676   0.053   0.559  12.384
 2113SOL     OW17677   0.252   1.564  12.916
 2113SOL    HW117678   0.222   1.621  12.992
 2113SOL    HW217679   0.245   1.467  12.942
 2114SOL     OW17680   0.671   0.464  12.441
 2114SOL    HW117681   0.637   0.375  12.411
 2114SOL    HW217682   0.697   0.518  12.361
 2115SOL     OW17683   1.759   1.747  12.326
 2115SOL    HW117684   1.820   1.777  12.253
 2115SOL    HW217685   1.721   1.658  12.304
 2116SOL     OW17686   1.252   1.731  12.300
 2116SOL    HW117687   1.336   1.736  12.246
 2116SOL    HW217688   1.229   1.635  12.318
 2117SOL     OW17689   1.650   1.720  12.566
 2117SOL    HW117690   1.703   1.730  12.482
 2117SOL    HW217691   1.623   1.810  12.600
 2118SOL     OW17692   1.841   0.175  12.135
 2118SOL    HW117693   1.880   0.090  12.099
 2118SOL    HW217694   1.743   0.177  12.116
 2119SOL     OW17695   1.504   1.607  11.216
 2119SOL    HW117696   1.412   1.644  11.223
 2119SOL    HW217697   1.542   1.627  11.126
 2120SOL     OW17698   1.039   1.098  11.868
 2120SOL    HW117699   0.969   1.051  11.922
 2120SOL    HW217700   1.098   1.030  11.825
 2121SOL     OW17701   1.709   0.385  12.553
 2121SOL    HW117702   1.782   0.454  12.557
 2121SOL    HW217703   1.737   0.310  12.494
 2122SOL     OW17704   0.672   0.203  12.661
 2122SOL    HW117705   0.762   0.187  12.621
 2122SOL    HW217706   0.680   0.208  12.760
 2123SOL     OW17707   0.613   0.842  12.603
 2123SOL    HW117708   0.669   0.923  12.586
 2123SOL    HW217709   0.672   0.762  12.606
 2124SOL     OW17710   1.493   1.767  12.131
 2124SOL    HW117711   1.526   1.831  12.062
 2124SOL    HW217712   1.559   1.761  12.206
 2125SOL     OW17713   0.716   0.565  12.880
 2125SOL    HW117714   0.735   0.630  12.954
 2125SOL    HW217715   0.776   0.485  12.889
 2126SOL     OW17716   1.450   1.220  12.805
 2126SOL    HW117717   1.441   1.210  12.904
 2126SOL    HW217718   1.546   1.213  12.779
 2127SOL     OW17719   0.390   1.741  12.732
 2127SOL    HW117720   0.299   1.782  12.730
 2127SOL    HW217721   0.383   1.647  12.764
 2128SOL     OW17722   1.777   0.342  12.814
 2128SOL    HW117723   1.760   0.373  12.720
 2128SOL    HW217724   1.693   0.305  12.852
 2129SOL     OW17725   1.730   0.934  12.689
 2129SOL    HW117726   1.768   1.025  12.704
 2129SOL    HW217727   1.722   0.917  12.590
 2130SOL     OW17728   0.661   1.790  12.125
 2130SOL    HW117729   0.615   1.878  12.112
 2130SOL    HW217730   0.760   1.802  12.118
 2131SOL     OW17731   0.079   1.240  11.825
 2131SOL    HW117732   0.078   1.193  11.913
 2131SOL    HW217733   0.161   1.212  11.774
 2132SOL     OW17734   1.824   0.192  12.399
 2132SOL    HW117735   1.820   0.102  12.443
 2132SOL    HW217736   1.827   0.181  12.300
 2133SOL     OW17737   0.317   0.547  12.452
 2133SOL    HW117738   0.355   0.488  12.524
 2133SOL    HW217739   0.357   0.521  12.364
 2134SOL     OW17740   1.001   0.034  12.326
 2134SOL    HW117741   0.938  -0.038  12.295
 2134SOL    HW217742   1.094  -0.002  12.326
 2135SOL     OW17743   1.352   0.052  11.340
 2135SOL    HW117744   1.387   0.011  11.256
 2135SOL    HW217745   1.262   0.014  11.360
 2136SOL     OW17746   0.230   0.628  13.147
 2136SOL    HW117747   0.137   0.626  13.184
 2136SOL    HW217748   0.231   0.589  13.055
 2137SOL     OW17749   0.569   1.275  14.199
 2137SOL    HW117750   0.476   1.268  14.162
 2137SOL    HW217751   0.580   1.364  14.243
 2138SOL     OW17752   1.603   0.447  13.771
 2138SOL    HW117753   1.529   0.493  13.721
 2138SOL    HW217754   1.654   0.515  13.824
 2139SOL     OW17755   0.240   1.091  13.920
 2139SOL    HW117756   0.254   1.007  13.972
 2139SOL    HW217757   0.185   1.155  13.975
 2140SOL     OW17758   0.197   0.976  14.298
 2140SOL    HW117759   0.286   0.931  14.284
 2140SOL    HW217760   0.124   0.911  14.279
 2141SOL     OW17761   1.466   1.417  13.987
 2141SOL    HW117762   1.407   1.423  14.067
 2141SOL    HW217763   1.451   1.329  13.941
 2142SOL     OW17764   0.991   0.410  14.276
 2142SOL    HW117765   0.914   0.444  14.330
 2142SOL    HW217766   0.957   0.359  14.197
 2143SOL     OW17767   1.041   0.701  13.463
 2143SOL    HW117768   1.067   0.697  13.559
 2143SOL    HW217769   0.956   0.650  13.449
 2144SOL     OW17770   0.865   0.348  13.229
 2144SOL    HW117771   0.924   0.411  13.180
 2144SOL    HW217772   0.884   0.254  13.200
 2145SOL     OW17773   1.362   1.144  13.579
 2145SOL    HW117774   1.445   1.115  13.531
 2145SOL    HW217775   1.313   1.211  13.523
 2146SOL     OW17776   0.550   0.196  13.919
 2146SOL    HW117777   0.545   0.191  14.019
 2146SOL    HW217778   0.552   0.292  13.890
 2147SOL     OW17779   1.795   1.066  13.907
 2147SOL    HW117780   1.733   1.051  13.831
 2147SOL    HW217781   1.743   1.077  13.992
 2148SOL     OW17782   0.321   0.943  13.276
 2148SOL    HW117783   0.403   0.982  13.234
 2148SOL    HW217784   0.294   0.861  13.227
 2149SOL     OW17785   0.940   1.698  13.938
 2149SOL    HW117786   1.020   1.641  13.959
 2149SOL    HW217787   0.891   1.658  13.861
 2150SOL     OW17788   0.382   0.700  13.514
 2150SOL    HW117789   0.427   0.610  13.511
 2150SOL    HW217790   0.288   0.689  13.547
 2151SOL     OW17791   1.547   0.222  14.763
 2151SOL    HW117792   1.542   0.259  14.855
 2151SOL    HW217793   1.475   0.153  14.751
 2152SOL     OW17794   0.888   1.514  14.229
 2152SOL    HW117795   0.865   1.489  14.135
 2152SOL    HW217796   0.949   1.445  14.268
 2153SOL     OW17797   0.803   1.402  13.958
 2153SOL    HW117798   0.893   1.416  13.916
 2153SOL    HW217799   0.732   1.404  13.887
 2154SOL     OW17800   0.922   0.503  13.933
 2154SOL    HW117801   0.897   0.494  13.837
 2154SOL    HW217802   0.970   0.421  13.964
 2155SOL     OW17803   0.539   0.064  13.546
 2155SOL    HW117804   0.458   0.065  13.604
 2155SOL    HW217805   0.542   0.147  13.491
 2156SOL     OW17806   1.434   1.188  13.075
 2156SOL    HW117807   1.466   1.112  13.132
 2156SOL    HW217808   1.342   1.215  13.105
 2157SOL     OW17809   1.227   1.570  13.827
 2157SOL    HW117810   1.248   1.644  13.762
 2157SOL    HW217811   1.295   1.570  13.900
 2158SOL     OW17812   1.271   1.797  13.625
 2158SOL    HW117813   1.315   1.861  13.561
 2158SOL    HW217814   1.221   1.849  13.695
 2159SOL     OW17815   0.561   0.222  14.181
 2159SOL    HW117816   0.599   0.138  14.218
 2159SOL    HW217817   0.473   0.241  14.225
 2160SOL     OW17818   0.866   0.454  13.676
 2160SOL    HW117819   0.834   0.526  13.614
 2160SOL    HW217820   0.890   0.373  13.623
 2161SOL     OW17821   1.429   1.173  13.901
 2161SOL    HW117822   1.374   1.089  13.894
 2161SOL    HW217823   1.455   1.202  13.809
 2162SOL     OW17824   1.466   0.590  14.026
 2162SOL    HW117825   1.436   0.495  14.033
 2162SOL    HW217826   1.539   0.606  14.092
 2163SOL     OW17827   1.664   1.280  13.691
 2163SOL    HW117828   1.763   1.288  13.705
 2163SOL    HW217829   1.619   1.364  13.722
 2164SOL     OW17830   0.527   0.256  13.362
 2164SOL    HW117831   0.554   0.197  13.287
 2164SOL    HW217832   0.527   0.351  13.331
 2165SOL     OW17833   1.754   1.223  14.622
 2165SOL    HW117834   1.845   1.184  14.609
 2165SOL    HW217835   1.762   1.319  14.646
 2166SOL     OW17836   1.064   1.347  14.374
 2166SOL    HW117837   0.984   1.324  14.429
 2166SOL    HW217838   1.147   1.321  14.423
 2167SOL     OW17839   1.111   1.195  14.134
 2167SOL    HW117840   1.071   1.239  14.215
 2167SOL    HW217841   1.070   1.232  14.051
 2168SOL     OW17842   1.638   1.099  14.113
 2168SOL    HW117843   1.643   1.180  14.172
 2168SOL    HW217844   1.552   1.101  14.062
 2169SOL     OW17845   1.274   0.386  14.296
 2169SOL    HW117846   1.295   0.460  14.360
 2169SOL    HW217847   1.185   0.403  14.253
 2170SOL     OW17848   0.064   1.564  14.365
 2170SOL    HW117849   0.018   1.646  14.331
 2170SOL    HW217850   0.162   1.583  14.374
 2171SOL     OW17851   1.360   0.862  14.079
 2171SOL    HW117852   1.285   0.862  14.013
 2171SOL    HW217853   1.397   0.770  14.088
 2172SOL     OW17854   0.037   1.310  14.316
 2172SOL    HW117855   0.090   1.261  14.384
 2172SOL    HW217856   0.059   1.408  14.321
 2173SOL     OW17857   0.307   0.063  13.652
 2173SOL    HW117858   0.296   0.157  13.685
 2173SOL    HW217859   0.302   0.000  13.729
 2174SOL     OW17860   1.622   0.367  13.408
 2174SOL    HW117861   1.624   0.291  13.472
 2174SOL    HW217862   1.574   0.444  13.448
 2175SOL     OW17863   0.980   1.573  14.734
 2175SOL    HW117864   0.960   1.617  14.646
 2175SOL    HW217865   1.019   1.482  14.718
 2176SOL     OW17866   1.859   1.518  14.639
 2176SOL    HW117867   1.873   1.545  14.544
 2176SOL    HW217868   1.942   1.540  14.692
 2177SOL     OW17869   0.339   0.509  14.040
 2177SOL    HW117870   0.287   0.426  14.023
 2177SOL    HW217871   0.416   0.514  13.976
 2178SOL     OW17872   0.008   1.326  13.234
 2178SOL    HW117873  -0.085   1.347  13.203
 2178SOL    HW217874   0.018   1.227  13.247
 2179SOL     OW17875   0.088   1.801  13.961
 2179SOL    HW117876   0.046   1.715  13.934
 2179SOL    HW217877   0.182   1.804  13.927
 2180SOL     OW17878   0.671   0.464  14.303
 2180SOL    HW117879   0.637   0.375  14.273
 2180SOL    HW217880   0.697   0.518  14.223
 2181SOL     OW17881   0.473   0.500  13.225
 2181SOL    HW117882   0.534   0.580  13.229
 2181SOL    HW217883   0.378   0.531  13.232
 2182SOL     OW17884   1.347   1.059  14.268
 2182SOL    HW117885   1.371   0.996  14.194
 2182SOL    HW217886   1.257   1.099  14.250
 2183SOL     OW17887   0.688   1.662  14.750
 2183SOL    HW117888   0.632   1.743  14.759
 2183SOL    HW217889   0.740   1.666  14.664
 2184SOL     OW17890   0.830   1.273  14.456
 2184SOL    HW117891   0.825   1.306  14.551
 2184SOL    HW217892   0.744   1.292  14.410
 2185SOL     OW17893   1.841   0.175  13.997
 2185SOL    HW117894   1.880   0.090  13.961
 2185SOL    HW217895   1.743   0.177  13.978
 2186SOL     OW17896   0.263   0.326  13.754
 2186SOL    HW117897   0.184   0.377  13.720
 2186SOL    HW217898   0.254   0.311  13.852
 2187SOL     OW17899   1.194   1.612  13.065
 2187SOL    HW117900   1.200   1.519  13.102
 2187SOL    HW217901   1.135   1.612  12.985
 2188SOL     OW17902   1.614   1.292  14.323
 2188SOL    HW117903   1.674   1.295  14.403
 2188SOL    HW217904   1.539   1.356  14.336
 2189SOL     OW17905   0.255   1.348  13.324
 2189SOL    HW117906   0.159   1.349  13.297
 2189SOL    HW217907   0.267   1.401  13.408
 2190SOL     OW17908   0.075   0.345  13.067
 2190SOL    HW117909  -0.017   0.317  13.038
 2190SOL    HW217910   0.106   0.422  13.011
 2191SOL     OW17911   1.440   0.856  14.432
 2191SOL    HW117912   1.383   0.908  14.369
 2191SOL    HW217913   1.536   0.868  14.408
 2192SOL     OW17914   1.493   1.767  13.993
 2192SOL    HW117915   1.526   1.831  13.924
 2192SOL    HW217916   1.559   1.761  14.068
 2193SOL     OW17917   0.859   1.374  13.050
 2193SOL    HW117918   0.813   1.389  13.138
 2193SOL    HW217919   0.903   1.459  13.020
 2194SOL     OW17920   0.221   1.314  14.878
 2194SOL    HW117921   0.156   1.241  14.857
 2194SOL    HW217922   0.225   1.328  14.976
 2195SOL     OW17923   0.428   0.424  13.554
 2195SOL    HW117924   0.458   0.352  13.492
 2195SOL    HW217925   0.389   0.384  13.637
 2196SOL     OW17926   0.812   1.586  13.721
 2196SOL    HW117927   0.844   1.596  13.627
 2196SOL    HW217928   0.733   1.524  13.723
 2197SOL     OW17929   1.300   0.453  13.725
 2197SOL    HW117930   1.241   0.533  13.729
 2197SOL    HW217931   1.315   0.418  13.818
 2198SOL     OW17932   0.039   1.077  13.334
 2198SOL    HW117933   0.138   1.066  13.325
 2198SOL    HW217934  -0.001   0.991  13.366
 2199SOL     OW17935   0.230   0.628  15.009
 2199SOL    HW117936   0.137   0.626  15.046
 2199SOL    HW217937   0.231   0.589  14.917
 2200SOL     OW17938   0.019   0.368  15.543
 2200SOL    HW117939  -0.063   0.411  15.582
 2200SOL    HW217940  -0.009   0.295  15.480
 2201SOL     OW17941   1.135   0.703  15.613
 2201SOL    HW117942   1.192   0.781  15.588
 2201SOL    HW217943   1.075   0.729  15.689
 2202SOL     OW17944   0.685   1.012  15.561
 2202SOL    HW117945   0.754   0.996  15.631
 2202SOL    HW217946   0.612   1.069  15.599
 2203SOL     OW17947   0.686   1.161  16.700
 2203SOL    HW117948   0.746   1.240  16.714
 2203SOL    HW217949   0.600   1.192  16.659
 2204SOL     OW17950   0.335   1.435  15.958
 2204SOL    HW117951   0.257   1.404  15.905
 2204SOL    HW217952   0.393   1.493  15.901
 2205SOL     OW17953   1.603   0.447  15.633
 2205SOL    HW117954   1.529   0.493  15.583
 2205SOL    HW217955   1.654   0.515  15.686
 2206SOL     OW17956   0.231   1.713  15.379
 2206SOL    HW117957   0.265   1.790  15.433
 2206SOL    HW217958   0.275   1.713  15.289
 2207SOL     OW17959   1.127   1.341  16.587
 2207SOL    HW117960   1.174   1.341  16.675
 2207SOL    HW217961   1.079   1.254  16.576
 2208SOL     OW17962   0.122   0.643  15.459
 2208SOL    HW117963   0.077   0.555  15.476
 2208SOL    HW217964   0.121   0.697  15.543
 2209SOL     OW17965   1.842   1.767  15.255
 2209SOL    HW117966   1.896   1.738  15.335
 2209SOL    HW217967   1.872   1.857  15.226
 2210SOL     OW17968   1.293   1.228  16.320
 2210SOL    HW117969   1.330   1.155  16.262
 2210SOL    HW217970   1.345   1.233  16.405
 2211SOL     OW17971   1.281   0.345  15.841
 2211SOL    HW117972   1.195   0.295  15.828
 2211SOL    HW217973   1.343   0.291  15.897
 2212SOL     OW17974   1.576   1.662  15.203
 2212SOL    HW117975   1.665   1.708  15.206
 2212SOL    HW217976   1.555   1.638  15.108
 2213SOL     OW17977   1.394   0.469  16.571
 2213SOL    HW117978   1.374   0.512  16.659
 2213SOL    HW217979   1.472   0.407  16.580
 2214SOL     OW17980   0.076   0.811  15.685
 2214SOL    HW117981   0.175   0.799  15.694
 2214SOL    HW217982   0.052   0.906  15.706
 2215SOL     OW17983   1.719   0.585  16.728
 2215SOL    HW117984   1.693   0.674  16.692
 2215SOL    HW217985   1.717   0.517  16.655
 2216SOL     OW17986   0.550   0.196  15.781
 2216SOL    HW117987   0.545   0.191  15.881
 2216SOL    HW217988   0.552   0.292  15.752
 2217SOL     OW17989   1.458   0.735  15.624
 2217SOL    HW117990   1.453   0.670  15.699
 2217SOL    HW217991   1.538   0.794  15.637
 2218SOL     OW17992   0.464   1.743  15.219
 2218SOL    HW117993   0.497   1.782  15.305
 2218SOL    HW217994   0.540   1.736  15.154
 2219SOL     OW17995   0.940   1.698  15.800
 2219SOL    HW117996   1.020   1.641  15.821
 2219SOL    HW217997   0.891   1.658  15.723
 2220SOL     OW17998   0.922   0.503  15.795
 2220SOL    HW117999   0.897   0.494  15.699
 2220SOL    HW218000   0.970   0.421  15.826
 2221SOL     OW18001   1.227   1.570  15.689
 2221SOL    HW118002   1.248   1.644  15.624
 2221SOL    HW218003   1.295   1.570  15.762
 2222SOL     OW18004   0.561   0.222  16.044
 2222SOL    HW118005   0.599   0.138  16.081
 2222SOL    HW218006   0.473   0.241  16.088
 2223SOL     OW18007   1.466   0.590  15.889
 2223SOL    HW118008   1.436   0.495  15.896
 2223SOL    HW218009   1.539   0.606  15.955
 2224SOL     OW18010   1.754   1.223  16.485
 2224SOL    HW118011   1.845   1.184  16.472
 2224SOL    HW218012   1.762   1.319  16.509
 2225SOL     OW18013   1.064   1.347  16.237
 2225SOL    HW118014   0.984   1.324  16.292
 2225SOL    HW218015   1.147   1.321  16.286
 2226SOL     OW18016   1.592   1.629  16.522
 2226SOL    HW118017   1.619   1.663  16.432
 2226SOL    HW218018   1.671   1.591  16.568
 2227SOL     OW18019   0.566   0.537  15.761
 2227SOL    HW118020   0.578   0.603  15.687
 2227SOL    HW218021   0.612   0.571  15.844
 2228SOL     OW18022   1.272   1.445  16.039
 2228SOL    HW118023   1.319   1.458  16.126
 2228SOL    HW218024   1.206   1.371  16.048
 2229SOL     OW18025   0.573   0.870  15.926
 2229SOL    HW118026   0.617   0.959  15.917
 2229SOL    HW218027   0.510   0.870  16.003
 2230SOL     OW18028   1.360   0.862  15.942
 2230SOL    HW118029   1.285   0.862  15.876
 2230SOL    HW218030   1.397   0.770  15.951
 2231SOL     OW18031   0.037   1.310  16.179
 2231SOL    HW118032   0.090   1.261  16.247
 2231SOL    HW218033   0.059   1.408  16.184
 2232SOL     OW18034   0.732   0.634  15.961
 2232SOL    HW118035   0.791   0.608  15.885
 2232SOL    HW218036   0.704   0.730  15.950
 2233SOL     OW18037   1.728   0.935  16.751
 2233SOL    HW118038   1.682   0.928  16.662
 2233SOL    HW218039   1.666   0.979  16.817
 2234SOL     OW18040   1.622   0.367  15.270
 2234SOL    HW118041   1.624   0.291  15.334
 2234SOL    HW218042   1.574   0.444  15.310
 2235SOL     OW18043   1.023   0.766  15.863
 2235SOL    HW118044   1.038   0.787  15.959
 2235SOL    HW218045   0.993   0.671  15.854
 2236SOL     OW18046   1.859   1.518  16.502
 2236SOL    HW118047   1.873   1.545  16.407
 2236SOL    HW218048   1.942   1.540  16.555
 2237SOL     OW18049   1.138   0.380  16.575
 2237SOL    HW118050   1.093   0.443  16.639
 2237SOL    HW218051   1.231   0.411  16.558
 2238SOL     OW18052   1.160   0.207  16.374
 2238SOL    HW118053   1.160   0.271  16.451
 2238SOL    HW218054   1.188   0.255  16.291
 2239SOL     OW18055   0.008   1.326  15.096
 2239SOL    HW118056  -0.085   1.347  15.065
 2239SOL    HW218057   0.018   1.227  15.109
 2240SOL     OW18058   0.504   1.568  15.806
 2240SOL    HW118059   0.570   1.642  15.815
 2240SOL    HW218060   0.548   1.489  15.764
 2241SOL     OW18061   1.002   0.796  16.135
 2241SOL    HW118062   1.043   0.764  16.221
 2241SOL    HW218063   0.906   0.769  16.132
 2242SOL     OW18064   1.369   0.950  16.557
 2242SOL    HW118065   1.408   1.039  16.577
 2242SOL    HW218066   1.379   0.930  16.460
 2243SOL     OW18067   0.671   0.464  16.166
 2243SOL    HW118068   0.637   0.375  16.136
 2243SOL    HW218069   0.697   0.518  16.086
 2244SOL     OW18070   1.347   1.059  16.131
 2244SOL    HW118071   1.371   0.996  16.057
 2244SOL    HW218072   1.257   1.099  16.113
 2245SOL     OW18073   1.726   0.135  15.419
 2245SOL    HW118074   1.799   0.118  15.352
 2245SOL    HW218075   1.695   0.048  15.457
 2246SOL     OW18076   1.280   0.927  15.568
 2246SOL    HW118077   1.340   0.846  15.570
 2246SOL    HW218078   1.320   0.996  15.508
 2247SOL     OW18079   1.841   0.175  15.860
 2247SOL    HW118080   1.880   0.090  15.824
 2247SOL    HW218081   1.743   0.177  15.841
 2248SOL     OW18082   0.255   1.348  15.186
 2248SOL    HW118083   0.159   1.349  15.159
 2248SOL    HW218084   0.267   1.401  15.270
 2249SOL     OW18085   1.440   0.856  16.295
 2249SOL    HW118086   1.383   0.908  16.232
 2249SOL    HW218087   1.536   0.868  16.271
 2250SOL     OW18088   0.072   0.166  15.214
 2250SOL    HW118089   0.055   0.249  15.160
 2250SOL    HW218090   0.162   0.129  15.192
 2251SOL     OW18091   1.450   1.220  16.530
 2251SOL    HW118092   1.441   1.210  16.629
 2251SOL    HW218093   1.546   1.213  16.504
 2252SOL     OW18094   1.777   0.342  16.539
 2252SOL    HW118095   1.760   0.373  16.445
 2252SOL    HW218096   1.693   0.305  16.577
 2253SOL     OW18097   0.859   1.374  14.912
 2253SOL    HW118098   0.813   1.389  15.000
 2253SOL    HW218099   0.903   1.459  14.882
 2254SOL     OW18100   0.859   0.956  15.757
 2254SOL    HW118101   0.913   0.887  15.805
 2254SOL    HW218102   0.827   1.025  15.823
 2255SOL     OW18103   1.824   0.192  16.124
 2255SOL    HW118104   1.820   0.102  16.168
 2255SOL    HW218105   1.827   0.181  16.025
 2256SOL     OW18106   1.424   0.214  16.009
 2256SOL    HW118107   1.476   0.149  16.064
 2256SOL    HW218108   1.375   0.277  16.070
 2257SOL     OW18109   1.593   0.221  15.778
 2257SOL    HW118110   1.509   0.220  15.832
 2257SOL    HW218111   1.595   0.304  15.722
 2258SOL     OW18112   0.230   0.628  16.872
 2258SOL    HW118113   0.137   0.626  16.909
 2258SOL    HW218114   0.231   0.589  16.780
 2259SOL     OW18115   0.225   0.275  17.755
 2259SOL    HW118116   0.260   0.258  17.847
 2259SOL    HW218117   0.137   0.230  17.743
 2260SOL     OW18118   1.555   1.511  17.462
 2260SOL    HW118119   1.498   1.495  17.543
 2260SOL    HW218120   1.496   1.521  17.382
 2261SOL     OW18121   1.135   0.703  17.476
 2261SOL    HW118122   1.192   0.781  17.451
 2261SOL    HW218123   1.075   0.729  17.552
 2262SOL     OW18124   0.240   1.091  17.645
 2262SOL    HW118125   0.254   1.007  17.697
 2262SOL    HW218126   0.185   1.155  17.700
 2263SOL     OW18127   1.842   1.767  17.118
 2263SOL    HW118128   1.896   1.738  17.198
 2263SOL    HW218129   1.872   1.857  17.089
 2264SOL     OW18130   1.689   0.922  17.371
 2264SOL    HW118131   1.784   0.893  17.379
 2264SOL    HW218132   1.681   0.987  17.296
 2265SOL     OW18133   1.525   0.999  16.949
 2265SOL    HW118134   1.462   0.923  16.962
 2265SOL    HW218135   1.573   1.017  17.035
 2266SOL     OW18136   1.667   1.714  17.331
 2266SOL    HW118137   1.626   1.691  17.243
 2266SOL    HW218138   1.649   1.640  17.396
 2267SOL     OW18139   1.281   0.345  17.703
 2267SOL    HW118140   1.195   0.295  17.690
 2267SOL    HW218141   1.343   0.291  17.759
 2268SOL     OW18142   1.041   0.701  17.188
 2268SOL    HW118143   1.067   0.697  17.284
 2268SOL    HW218144   0.956   0.650  17.174
 2269SOL     OW18145   1.362   1.144  17.304
 2269SOL    HW118146   1.445   1.115  17.256
 2269SOL    HW218147   1.313   1.211  17.248
 2270SOL     OW18148   1.008   1.456  17.236
 2270SOL    HW118149   0.962   1.528  17.184
 2270SOL    HW218150   1.004   1.476  17.334
 2271SOL     OW18151   1.795   1.066  17.632
 2271SOL    HW118152   1.733   1.051  17.556
 2271SOL    HW218153   1.743   1.077  17.717
 2272SOL     OW18154   0.321   0.943  17.001
 2272SOL    HW118155   0.403   0.982  16.959
 2272SOL    HW218156   0.294   0.861  16.952
 2273SOL     OW18157   1.111   1.776  16.996
 2273SOL    HW118158   1.051   1.714  17.046
 2273SOL    HW218159   1.142   1.732  16.911
 2274SOL     OW18160   0.464   1.743  17.082
 2274SOL    HW118161   0.497   1.782  17.168
 2274SOL    HW218162   0.540   1.736  17.017
 2275SOL     OW18163   0.922   0.503  17.658
 2275SOL    HW118164   0.897   0.494  17.562
 2275SOL    HW218165   0.970   0.421  17.689
 2276SOL     OW18166   1.434   1.188  16.800
 2276SOL    HW118167   1.466   1.112  16.857
 2276SOL    HW218168   1.342   1.215  16.830
 2277SOL     OW18169   1.271   1.797  17.350
 2277SOL    HW118170   1.315   1.861  17.286
 2277SOL    HW218171   1.221   1.849  17.420
 2278SOL     OW18172   0.866   0.454  17.401
 2278SOL    HW118173   0.834   0.526  17.339
 2278SOL    HW218174   0.890   0.373  17.348
 2279SOL     OW18175   1.466   0.590  17.751
 2279SOL    HW118176   1.436   0.495  17.758
 2279SOL    HW218177   1.539   0.606  17.817
 2280SOL     OW18178   1.857   0.833  17.136
 2280SOL    HW118179   1.899   0.769  17.200
 2280SOL    HW218180   1.819   0.782  17.058
 2281SOL     OW18181   0.488   1.385  16.933
 2281SOL    HW118182   0.401   1.370  16.980
 2281SOL    HW218183   0.471   1.411  16.838
 2282SOL     OW18184   1.390   0.575  16.837
 2282SOL    HW118185   1.336   0.554  16.918
 2282SOL    HW218186   1.481   0.534  16.846
 2283SOL     OW18187   0.527   0.256  17.087
 2283SOL    HW118188   0.554   0.197  17.012
 2283SOL    HW218189   0.527   0.351  17.056
 2284SOL     OW18190   1.111   1.195  17.859
 2284SOL    HW118191   1.071   1.239  17.940
 2284SOL    HW218192   1.070   1.232  17.776
 2285SOL     OW18193   1.638   1.099  17.838
 2285SOL    HW118194   1.643   1.180  17.897
 2285SOL    HW218195   1.552   1.101  17.787
 2286SOL     OW18196   1.272   1.445  17.901
 2286SOL    HW118197   1.319   1.458  17.988
 2286SOL    HW218198   1.206   1.371  17.910
 2287SOL     OW18199   1.023   0.766  17.725
 2287SOL    HW118200   1.038   0.787  17.821
 2287SOL    HW218201   0.993   0.671  17.716
 2288SOL     OW18202   1.303   0.838  16.801
 2288SOL    HW118203   1.337   0.745  16.816
 2288SOL    HW218204   1.321   0.865  16.706
 2289SOL     OW18205   0.319   0.810  17.708
 2289SOL    HW118206   0.412   0.846  17.713
 2289SOL    HW218207   0.313   0.725  17.760
 2290SOL     OW18208   0.339   0.509  17.765
 2290SOL    HW118209   0.287   0.426  17.748
 2290SOL    HW218210   0.416   0.514  17.701
 2291SOL     OW18211   0.008   1.326  16.959
 2291SOL    HW118212  -0.085   1.347  16.928
 2291SOL    HW218213   0.018   1.227  16.972
 2292SOL     OW18214   0.040   0.544  17.873
 2292SOL    HW118215   0.125   0.511  17.832
 2292SOL    HW218216   0.053   0.559  17.971
 2293SOL     OW18217   0.815   0.572  17.084
 2293SOL    HW118218   0.822   0.483  17.038
 2293SOL    HW218219   0.721   0.606  17.076
 2294SOL     OW18220   1.657   0.604  17.965
 2294SOL    HW118221   1.619   0.535  18.027
 2294SOL    HW218222   1.739   0.568  17.921
 2295SOL     OW18223   0.671   0.464  18.028
 2295SOL    HW118224   0.637   0.375  17.998
 2295SOL    HW218225   0.697   0.518  17.948
 2296SOL     OW18226   0.473   0.500  16.950
 2296SOL    HW118227   0.534   0.580  16.954
 2296SOL    HW218228   0.378   0.531  16.957
 2297SOL     OW18229   1.302   0.855  17.068
 2297SOL    HW118230   1.216   0.824  17.110
 2297SOL    HW218231   1.298   0.841  16.969
 2298SOL     OW18232   0.083   1.258  17.781
 2298SOL    HW118233   0.078   1.257  17.881
 2298SOL    HW218234   0.000   1.217  17.743
 2299SOL     OW18235   1.280   0.927  17.431
 2299SOL    HW118236   1.340   0.846  17.433
 2299SOL    HW218237   1.320   0.996  17.371
 2300SOL     OW18238   0.672   1.616  16.913
 2300SOL    HW118239   0.681   1.626  16.814
 2300SOL    HW218240   0.632   1.527  16.934
 2301SOL     OW18241   0.263   0.326  17.479
 2301SOL    HW118242   0.184   0.377  17.445
 2301SOL    HW218243   0.254   0.311  17.577
 2302SOL     OW18244   1.039   1.098  17.455
 2302SOL    HW118245   0.969   1.051  17.509
 2302SOL    HW218246   1.098   1.030  17.412
 2303SOL     OW18247   1.014   0.236  17.730
 2303SOL    HW118248   1.006   0.200  17.637
 2303SOL    HW218249   1.012   0.160  17.795
 2304SOL     OW18250   0.255   1.348  17.049
 2304SOL    HW118251   0.159   1.349  17.022
 2304SOL    HW218252   0.267   1.401  17.133
 2305SOL     OW18253   0.072   0.166  17.077
 2305SOL    HW118254   0.055   0.249  17.023
 2305SOL    HW218255   0.162   0.129  17.055
 2306SOL     OW18256   1.183   1.335  16.878
 2306SOL    HW118257   1.084   1.324  16.880
 2306SOL    HW218258   1.217   1.350  16.971
 2307SOL     OW18259   0.859   1.374  16.775
 2307SOL    HW118260   0.813   1.389  16.863
 2307SOL    HW218261   0.903   1.459  16.745
 2308SOL     OW18262   1.861   1.569  17.610
 2308SOL    HW118263   1.790   1.557  17.540
 2308SOL    HW218264   1.862   1.490  17.670
 2309SOL     OW18265   0.428   0.424  17.279
 2309SOL    HW118266   0.458   0.352  17.217
 2309SOL    HW218267   0.389   0.384  17.362
 2310SOL     OW18268   1.424   0.214  17.871
 2310SOL    HW118269   1.476   0.149  17.926
 2310SOL    HW218270   1.375   0.277  17.932
 2311SOL     OW18271   1.352   0.052  16.927
 2311SOL    HW118272   1.387   0.011  16.843
 2311SOL    HW218273   1.262   0.014  16.947
 2312SOL     OW18274   1.300   0.453  17.450
 2312SOL    HW118275   1.241   0.533  17.454
 2312SOL    HW218276   1.315   0.418  17.543
 2313SOL     OW18277   0.039   1.077  17.059
 2313SOL    HW118278   0.138   1.066  17.050
 2313SOL    HW218279  -0.001   0.991  17.091
 2314SOL     OW18280   0.875   1.646  17.096
 2314SOL    HW118281   0.798   1.611  17.042
 2314SOL    HW218282   0.843   1.717  17.158
 2315SOL     OW18283   1.555   3.373   0.703
 2315SOL    HW118284   1.498   3.357   0.784
 2315SOL    HW218285   1.496   3.383   0.623
 2316SOL     OW18286   1.135   2.565   0.717
 2316SOL    HW118287   1.192   2.643   0.692
 2316SOL    HW218288   1.075   2.591   0.793
 2317SOL     OW18289   0.850   2.660   1.823
 2317SOL    HW118290   0.846   2.736   1.888
 2317SOL    HW218291   0.872   2.696   1.732
 2318SOL     OW18292   0.686   3.023   1.803
 2318SOL    HW118293   0.746   3.102   1.817
 2318SOL    HW218294   0.600   3.054   1.762
 2319SOL     OW18295   1.460   3.367   1.339
 2319SOL    HW118296   1.484   3.461   1.365
 2319SOL    HW218297   1.444   3.313   1.421
 2320SOL     OW18298   1.603   2.309   0.737
 2320SOL    HW118299   1.529   2.355   0.687
 2320SOL    HW218300   1.654   2.377   0.790
 2321SOL     OW18301   0.231   3.575   0.483
 2321SOL    HW118302   0.265   3.652   0.537
 2321SOL    HW218303   0.275   3.575   0.393
 2322SOL     OW18304   1.127   3.203   1.690
 2322SOL    HW118305   1.174   3.203   1.778
 2322SOL    HW218306   1.079   3.116   1.679
 2323SOL     OW18307   0.230   3.296   0.538
 2323SOL    HW118308   0.204   3.392   0.538
 2323SOL    HW218309   0.159   3.242   0.583
 2324SOL     OW18310   0.620   3.648   1.439
 2324SOL    HW118311   0.528   3.631   1.474
 2324SOL    HW218312   0.648   3.740   1.465
 2325SOL     OW18313   1.594   1.976   1.480
 2325SOL    HW118314   1.576   2.043   1.408
 2325SOL    HW218315   1.591   2.022   1.569
 2326SOL     OW18316   1.842   3.629   0.359
 2326SOL    HW118317   1.896   3.600   0.439
 2326SOL    HW218318   1.872   3.719   0.330
 2327SOL     OW18319   0.113   2.599   1.597
 2327SOL    HW118320   0.201   2.586   1.642
 2327SOL    HW218321   0.100   2.696   1.575
 2328SOL     OW18322   0.613   3.227   0.726
 2328SOL    HW118323   0.564   3.140   0.735
 2328SOL    HW218324   0.590   3.270   0.639
 2329SOL     OW18325   1.187   3.654   1.616
 2329SOL    HW118326   1.211   3.714   1.540
 2329SOL    HW218327   1.194   3.559   1.586
 2330SOL     OW18328   0.317   2.113   1.801
 2330SOL    HW118329   0.388   2.184   1.807
 2330SOL    HW218330   0.229   2.152   1.829
 2331SOL     OW18331   1.667   3.576   0.572
 2331SOL    HW118332   1.626   3.553   0.484
 2331SOL    HW218333   1.649   3.502   0.637
 2332SOL     OW18334   1.281   2.207   0.944
 2332SOL    HW118335   1.195   2.157   0.931
 2332SOL    HW218336   1.343   2.153   1.000
 2333SOL     OW18337   1.576   3.524   0.307
 2333SOL    HW118338   1.665   3.570   0.310
 2333SOL    HW218339   1.555   3.500   0.212
 2334SOL     OW18340   0.807   2.467   1.465
 2334SOL    HW118341   0.760   2.464   1.554
 2334SOL    HW218342   0.756   2.412   1.399
 2335SOL     OW18343   0.973   2.752   1.572
 2335SOL    HW118344   1.019   2.668   1.543
 2335SOL    HW218345   0.917   2.786   1.497
 2336SOL     OW18346   1.041   2.563   0.429
 2336SOL    HW118347   1.067   2.559   0.525
 2336SOL    HW218348   0.956   2.512   0.415
 2337SOL     OW18349   0.130   3.683   1.571
 2337SOL    HW118350   0.120   3.668   1.670
 2337SOL    HW218351   0.044   3.719   1.535
 2338SOL     OW18352   0.865   2.210   0.195
 2338SOL    HW118353   0.924   2.273   0.146
 2338SOL    HW218354   0.884   2.116   0.166
 2339SOL     OW18355   1.719   2.447   1.831
 2339SOL    HW118356   1.693   2.536   1.795
 2339SOL    HW218357   1.717   2.379   1.758
 2340SOL     OW18358   1.362   3.006   0.545
 2340SOL    HW118359   1.445   2.977   0.497
 2340SOL    HW218360   1.313   3.073   0.489
 2341SOL     OW18361   1.008   3.318   0.477
 2341SOL    HW118362   0.962   3.390   0.425
 2341SOL    HW218363   1.004   3.338   0.575
 2342SOL     OW18364   1.227   3.412   1.506
 2342SOL    HW118365   1.233   3.335   1.570
 2342SOL    HW218366   1.175   3.386   1.426
 2343SOL     OW18367   1.458   2.597   0.728
 2343SOL    HW118368   1.453   2.532   0.803
 2343SOL    HW218369   1.538   2.656   0.741
 2344SOL     OW18370   0.461   3.128   1.727
 2344SOL    HW118371   0.411   3.129   1.641
 2344SOL    HW218372   0.398   3.110   1.803
 2345SOL     OW18373   1.111   3.638   0.237
 2345SOL    HW118374   1.051   3.576   0.287
 2345SOL    HW218375   1.142   3.594   0.152
 2346SOL     OW18376   0.464   3.605   0.323
 2346SOL    HW118377   0.497   3.644   0.409
 2346SOL    HW218378   0.540   3.598   0.258
 2347SOL     OW18379   0.249   3.647   1.241
 2347SOL    HW118380   0.306   3.582   1.291
 2347SOL    HW218381   0.233   3.614   1.148
 2348SOL     OW18382   0.940   3.560   0.904
 2348SOL    HW118383   1.020   3.503   0.925
 2348SOL    HW218384   0.891   3.520   0.827
 2349SOL     OW18385   1.547   2.084   1.729
 2349SOL    HW118386   1.542   2.121   1.821
 2349SOL    HW218387   1.475   2.015   1.717
 2350SOL     OW18388   0.614   1.984   0.117
 2350SOL    HW118389   0.712   1.962   0.124
 2350SOL    HW218390   0.583   1.967   0.024
 2351SOL     OW18391   0.781   2.126   1.749
 2351SOL    HW118392   0.848   2.065   1.792
 2351SOL    HW218393   0.708   2.145   1.814
 2352SOL     OW18394   0.803   3.264   0.924
 2352SOL    HW118395   0.893   3.278   0.882
 2352SOL    HW218396   0.732   3.266   0.853
 2353SOL     OW18397   0.922   2.365   0.899
 2353SOL    HW118398   0.897   2.356   0.803
 2353SOL    HW218399   0.970   2.283   0.930
 2354SOL     OW18400   0.539   1.926   0.512
 2354SOL    HW118401   0.458   1.927   0.570
 2354SOL    HW218402   0.542   2.009   0.457
 2355SOL     OW18403   1.271   3.659   0.591
 2355SOL    HW118404   1.315   3.723   0.527
 2355SOL    HW218405   1.221   3.711   0.661
 2356SOL     OW18406   1.032   2.411   0.016
 2356SOL    HW118407   0.991   2.493  -0.023
 2356SOL    HW218408   1.096   2.437   0.089
 2357SOL     OW18409   0.078   2.418   1.386
 2357SOL    HW118410   0.170   2.417   1.345
 2357SOL    HW218411   0.072   2.492   1.453
 2358SOL     OW18412   0.866   2.316   0.642
 2358SOL    HW118413   0.834   2.388   0.580
 2358SOL    HW218414   0.890   2.235   0.589
 2359SOL     OW18415   1.466   2.452   0.992
 2359SOL    HW118416   1.436   2.357   0.999
 2359SOL    HW218417   1.539   2.468   1.058
 2360SOL     OW18418   1.664   3.142   0.657
 2360SOL    HW118419   1.763   3.150   0.671
 2360SOL    HW218420   1.619   3.226   0.688
 2361SOL     OW18421   0.527   2.118   0.328
 2361SOL    HW118422   0.554   2.059   0.253
 2361SOL    HW218423   0.527   2.213   0.297
 2362SOL     OW18424   1.754   3.085   1.588
 2362SOL    HW118425   1.845   3.046   1.575
 2362SOL    HW218426   1.762   3.181   1.612
 2363SOL     OW18427   1.064   3.209   1.340
 2363SOL    HW118428   0.984   3.186   1.395
 2363SOL    HW218429   1.147   3.183   1.389
 2364SOL     OW18430   1.592   3.491   1.625
 2364SOL    HW118431   1.619   3.525   1.535
 2364SOL    HW218432   1.671   3.453   1.671
 2365SOL     OW18433   1.111   3.057   1.100
 2365SOL    HW118434   1.071   3.101   1.181
 2365SOL    HW218435   1.070   3.094   1.017
 2366SOL     OW18436   0.915   1.951   1.402
 2366SOL    HW118437   0.940   1.931   1.307
 2366SOL    HW218438   0.987   2.007   1.444
 2367SOL     OW18439   0.980   2.978   1.719
 2367SOL    HW118440   0.881   2.984   1.729
 2367SOL    HW218441   1.003   2.898   1.663
 2368SOL     OW18442   0.410   2.675   1.251
 2368SOL    HW118443   0.496   2.687   1.301
 2368SOL    HW218444   0.368   2.588   1.278
 2369SOL     OW18445   1.274   2.248   1.262
 2369SOL    HW118446   1.295   2.322   1.326
 2369SOL    HW218447   1.185   2.265   1.219
 2370SOL     OW18448   0.367   2.962   0.501
 2370SOL    HW118449   0.360   3.045   0.445
 2370SOL    HW218450   0.371   2.882   0.441
 2371SOL     OW18451   1.252   3.210   0.388
 2371SOL    HW118452   1.302   3.287   0.428
 2371SOL    HW218453   1.157   3.212   0.420
 2372SOL     OW18454   1.582   2.501   0.472
 2372SOL    HW118455   1.551   2.562   0.545
 2372SOL    HW218456   1.632   2.553   0.403
 2373SOL     OW18457   0.402   2.613   1.598
 2373SOL    HW118458   0.470   2.668   1.551
 2373SOL    HW218459   0.442   2.525   1.625
 2374SOL     OW18460   0.504   1.912   1.740
 2374SOL    HW118461   0.462   1.855   1.670
 2374SOL    HW218462   0.438   1.981   1.772
 2375SOL     OW18463   1.360   2.724   1.045
 2375SOL    HW118464   1.285   2.724   0.979
 2375SOL    HW218465   1.397   2.632   1.054
 2376SOL     OW18466   1.728   2.797   1.854
 2376SOL    HW118467   1.682   2.790   1.765
 2376SOL    HW218468   1.666   2.841   1.920
 2377SOL     OW18469   0.980   3.435   1.700
 2377SOL    HW118470   0.960   3.479   1.612
 2377SOL    HW218471   1.019   3.344   1.684
 2378SOL     OW18472   1.859   3.380   1.605
 2378SOL    HW118473   1.873   3.407   1.510
 2378SOL    HW218474   1.942   3.402   1.658
 2379SOL     OW18475   0.350   2.760   1.804
 2379SOL    HW118476   0.426   2.804   1.852
 2379SOL    HW218477   0.385   2.713   1.722
 2380SOL     OW18478   1.303   2.700   0.042
 2380SOL    HW118479   1.337   2.607   0.057
 2380SOL    HW218480   1.321   2.727  -0.053
 2381SOL     OW18481   1.068   3.195   0.849
 2381SOL    HW118482   1.075   3.111   0.794
 2381SOL    HW218483   1.130   3.264   0.813
 2382SOL     OW18484   1.138   2.242   1.678
 2382SOL    HW118485   1.093   2.305   1.742
 2382SOL    HW218486   1.231   2.273   1.661
 2383SOL     OW18487   1.160   2.069   1.477
 2383SOL    HW118488   1.160   2.133   1.554
 2383SOL    HW218489   1.188   2.117   1.394
 2384SOL     OW18490   0.504   3.430   0.910
 2384SOL    HW118491   0.570   3.504   0.919
 2384SOL    HW218492   0.548   3.351   0.868
 2385SOL     OW18493   0.189   2.382   1.722
 2385SOL    HW118494   0.248   2.342   1.652
 2385SOL    HW218495   0.131   2.453   1.681
 2386SOL     OW18496   0.815   2.434   0.325
 2386SOL    HW118497   0.822   2.345   0.279
 2386SOL    HW218498   0.721   2.468   0.317
 2387SOL     OW18499   1.657   2.466   1.206
 2387SOL    HW118500   1.619   2.397   1.268
 2387SOL    HW218501   1.739   2.430   1.162
 2388SOL     OW18502   1.347   2.921   1.234
 2388SOL    HW118503   1.371   2.858   1.160
 2388SOL    HW218504   1.257   2.961   1.216
 2389SOL     OW18505   1.759   3.609   1.154
 2389SOL    HW118506   1.820   3.639   1.081
 2389SOL    HW218507   1.721   3.520   1.132
 2390SOL     OW18508   0.083   3.120   1.022
 2390SOL    HW118509   0.078   3.119   1.122
 2390SOL    HW218510   0.000   3.079   0.984
 2391SOL     OW18511   0.903   1.948   0.133
 2391SOL    HW118512   0.954   1.949   0.047
 2391SOL    HW218513   0.959   1.906   0.204
 2392SOL     OW18514   1.388   3.435   0.477
 2392SOL    HW118515   1.455   3.447   0.403
 2392SOL    HW218516   1.348   3.524   0.500
 2393SOL     OW18517   0.130   3.656   1.851
 2393SOL    HW118518   0.089   3.582   1.904
 2393SOL    HW218519   0.194   3.707   1.909
 2394SOL     OW18520   1.280   2.789   0.672
 2394SOL    HW118521   1.340   2.708   0.674
 2394SOL    HW218522   1.320   2.858   0.612
 2395SOL     OW18523   0.830   3.135   1.422
 2395SOL    HW118524   0.825   3.168   1.517
 2395SOL    HW218525   0.744   3.154   1.376
 2396SOL     OW18526   1.650   3.582   1.394
 2396SOL    HW118527   1.703   3.592   1.310
 2396SOL    HW218528   1.623   3.672   1.428
 2397SOL     OW18529   1.194   3.474   0.031
 2397SOL    HW118530   1.200   3.381   0.068
 2397SOL    HW218531   1.135   3.474  -0.049
 2398SOL     OW18532   0.916   2.772   0.291
 2398SOL    HW118533   0.979   2.810   0.223
 2398SOL    HW218534   0.956   2.689   0.330
 2399SOL     OW18535   1.504   3.469   0.044
 2399SOL    HW118536   1.412   3.506   0.051
 2399SOL    HW218537   1.542   3.489  -0.046
 2400SOL     OW18538   1.039   2.960   0.696
 2400SOL    HW118539   0.969   2.913   0.750
 2400SOL    HW218540   1.098   2.892   0.653
 2401SOL     OW18541   0.590   3.349   0.491
 2401SOL    HW118542   0.632   3.291   0.421
 2401SOL    HW218543   0.546   3.428   0.447
 2402SOL     OW18544   0.255   3.210   0.290
 2402SOL    HW118545   0.159   3.211   0.263
 2402SOL    HW218546   0.267   3.263   0.374
 2403SOL     OW18547   0.105   2.875   1.726
 2403SOL    HW118548   0.028   2.842   1.780
 2403SOL    HW218549   0.190   2.845   1.768
 2404SOL     OW18550   0.672   2.065   1.489
 2404SOL    HW118551   0.762   2.049   1.449
 2404SOL    HW218552   0.680   2.070   1.588
 2405SOL     OW18553   1.183   3.197   0.119
 2405SOL    HW118554   1.084   3.186   0.121
 2405SOL    HW218555   1.217   3.212   0.212
 2406SOL     OW18556   0.613   2.704   1.431
 2406SOL    HW118557   0.669   2.785   1.414
 2406SOL    HW218558   0.672   2.624   1.434
 2407SOL     OW18559   1.493   3.629   0.959
 2407SOL    HW118560   1.526   3.693   0.890
 2407SOL    HW218561   1.559   3.623   1.034
 2408SOL     OW18562   0.716   2.427   1.708
 2408SOL    HW118563   0.735   2.492   1.782
 2408SOL    HW218564   0.776   2.347   1.717
 2409SOL     OW18565   1.450   3.082   1.633
 2409SOL    HW118566   1.441   3.072   1.732
 2409SOL    HW218567   1.546   3.075   1.607
 2410SOL     OW18568   0.859   3.236   0.016
 2410SOL    HW118569   0.813   3.251   0.104
 2410SOL    HW218570   0.903   3.321  -0.014
 2411SOL     OW18571   0.661   3.652   0.953
 2411SOL    HW118572   0.615   3.740   0.940
 2411SOL    HW218573   0.760   3.664   0.946
 2412SOL     OW18574   0.859   2.818   0.861
 2412SOL    HW118575   0.913   2.749   0.909
 2412SOL    HW218576   0.827   2.887   0.927
 2413SOL     OW18577   1.861   3.431   0.851
 2413SOL    HW118578   1.790   3.419   0.781
 2413SOL    HW218579   1.862   3.352   0.911
 2414SOL     OW18580   0.672   3.253   1.624
 2414SOL    HW118581   0.594   3.203   1.662
 2414SOL    HW218582   0.669   3.348   1.655
 2415SOL     OW18583   1.824   2.054   1.227
 2415SOL    HW118584   1.820   1.964   1.271
 2415SOL    HW218585   1.827   2.043   1.128
 2416SOL     OW18586   1.705   3.349   1.104
 2416SOL    HW118587   1.612   3.324   1.077
 2416SOL    HW218588   1.731   3.299   1.186
 2417SOL     OW18589   0.317   2.409   1.280
 2417SOL    HW118590   0.355   2.350   1.352
 2417SOL    HW218591   0.357   2.383   1.192
 2418SOL     OW18592   0.812   3.448   0.687
 2418SOL    HW118593   0.844   3.458   0.593
 2418SOL    HW218594   0.733   3.386   0.689
 2419SOL     OW18595   0.770   3.192   0.301
 2419SOL    HW118596   0.724   3.105   0.318
 2419SOL    HW218597   0.861   3.189   0.342
 2420SOL     OW18598   1.352   1.914   0.168
 2420SOL    HW118599   1.387   1.873   0.084
 2420SOL    HW218600   1.262   1.876   0.188
 2421SOL     OW18601   1.300   2.315   0.691
 2421SOL    HW118602   1.241   2.395   0.695
 2421SOL    HW218603   1.315   2.280   0.784
 2422SOL     OW18604   0.039   2.939   0.300
 2422SOL    HW118605   0.138   2.928   0.291
 2422SOL    HW218606  -0.001   2.853   0.332
 2423SOL     OW18607   0.875   3.508   0.337
 2423SOL    HW118608   0.798   3.473   0.283
 2423SOL    HW218609   0.843   3.579   0.399
 2424SOL     OW18610   0.230   2.490   1.975
 2424SOL    HW118611   0.137   2.488   2.012
 2424SOL    HW218612   0.231   2.451   1.883
 2425SOL     OW18613   0.225   2.137   2.858
 2425SOL    HW118614   0.260   2.120   2.950
 2425SOL    HW218615   0.137   2.092   2.846
 2426SOL     OW18616   0.019   2.230   2.509
 2426SOL    HW118617  -0.063   2.273   2.548
 2426SOL    HW218618  -0.009   2.157   2.446
 2427SOL     OW18619   0.569   3.137   3.027
 2427SOL    HW118620   0.476   3.130   2.990
 2427SOL    HW218621   0.580   3.226   3.071
 2428SOL     OW18622   1.555   3.373   2.565
 2428SOL    HW118623   1.498   3.357   2.646
 2428SOL    HW218624   1.496   3.383   2.485
 2429SOL     OW18625   1.135   2.565   2.579
 2429SOL    HW118626   1.192   2.643   2.554
 2429SOL    HW218627   1.075   2.591   2.655
 2430SOL     OW18628   1.755   2.469   2.093
 2430SOL    HW118629   1.743   2.456   1.994
 2430SOL    HW218630   1.725   2.388   2.142
 2431SOL     OW18631   0.768   3.006   2.885
 2431SOL    HW118632   0.690   3.023   2.945
 2431SOL    HW218633   0.802   3.093   2.849
 2432SOL     OW18634   0.850   2.660   3.685
 2432SOL    HW118635   0.846   2.736   3.750
 2432SOL    HW218636   0.872   2.696   3.594
 2433SOL     OW18637   0.685   2.874   2.527
 2433SOL    HW118638   0.754   2.858   2.597
 2433SOL    HW218639   0.612   2.931   2.565
 2434SOL     OW18640   0.686   3.023   3.665
 2434SOL    HW118641   0.746   3.102   3.679
 2434SOL    HW218642   0.600   3.054   3.624
 2435SOL     OW18643   0.335   3.297   2.923
 2435SOL    HW118644   0.257   3.266   2.870
 2435SOL    HW218645   0.393   3.355   2.866
 2436SOL     OW18646   1.460   3.367   3.201
 2436SOL    HW118647   1.484   3.461   3.227
 2436SOL    HW218648   1.444   3.313   3.283
 2437SOL     OW18649   0.438   2.254   3.361
 2437SOL    HW118650   0.520   2.198   3.370
 2437SOL    HW218651   0.357   2.196   3.365
 2438SOL     OW18652   1.603   2.309   2.599
 2438SOL    HW118653   1.529   2.355   2.549
 2438SOL    HW218654   1.654   2.377   2.652
 2439SOL     OW18655   0.231   3.575   2.345
 2439SOL    HW118656   0.265   3.652   2.399
 2439SOL    HW218657   0.275   3.575   2.255
 2440SOL     OW18658   1.127   3.203   3.552
 2440SOL    HW118659   1.174   3.203   3.640
 2440SOL    HW218660   1.079   3.116   3.541
 2441SOL     OW18661   0.230   3.296   2.400
 2441SOL    HW118662   0.204   3.392   2.400
 2441SOL    HW218663   0.159   3.242   2.445
 2442SOL     OW18664   0.240   2.953   2.748
 2442SOL    HW118665   0.254   2.869   2.800
 2442SOL    HW218666   0.185   3.017   2.803
 2443SOL     OW18667   0.620   3.648   3.301
 2443SOL    HW118668   0.528   3.631   3.336
 2443SOL    HW218669   0.648   3.740   3.327
 2444SOL     OW18670   0.606   2.826   1.985
 2444SOL    HW118671   0.613   2.910   1.931
 2444SOL    HW218672   0.652   2.839   2.073
 2445SOL     OW18673   1.594   1.976   3.342
 2445SOL    HW118674   1.576   2.043   3.270
 2445SOL    HW218675   1.591   2.022   3.431
 2446SOL     OW18676   0.122   2.505   2.425
 2446SOL    HW118677   0.077   2.417   2.442
 2446SOL    HW218678   0.121   2.559   2.509
 2447SOL     OW18679   1.842   3.629   2.221
 2447SOL    HW118680   1.896   3.600   2.301
 2447SOL    HW218681   1.872   3.719   2.192
 2448SOL     OW18682   0.027   3.458   1.979
 2448SOL    HW118683   0.008   3.362   2.000
 2448SOL    HW218684  -0.006   3.516   2.054
 2449SOL     OW18685   1.689   2.784   2.474
 2449SOL    HW118686   1.784   2.755   2.482
 2449SOL    HW218687   1.681   2.849   2.399
 2450SOL     OW18688   1.641   2.970   2.294
 2450SOL    HW118689   1.727   2.972   2.242
 2450SOL    HW218690   1.655   3.017   2.382
 2451SOL     OW18691   0.113   2.599   3.459
 2451SOL    HW118692   0.201   2.586   3.504
 2451SOL    HW218693   0.100   2.696   3.437
 2452SOL     OW18694   0.613   3.227   2.588
 2452SOL    HW118695   0.564   3.140   2.597
 2452SOL    HW218696   0.590   3.270   2.501
 2453SOL     OW18697   1.293   3.090   3.285
 2453SOL    HW118698   1.330   3.017   3.227
 2453SOL    HW218699   1.345   3.095   3.370
 2454SOL     OW18700   0.809   1.866   2.364
 2454SOL    HW118701   0.849   1.957   2.355
 2454SOL    HW218702   0.709   1.874   2.370
 2455SOL     OW18703   0.197   2.838   3.126
 2455SOL    HW118704   0.286   2.793   3.112
 2455SOL    HW218705   0.124   2.773   3.107
 2456SOL     OW18706   1.525   2.861   2.052
 2456SOL    HW118707   1.462   2.785   2.065
 2456SOL    HW218708   1.573   2.879   2.138
 2457SOL     OW18709   1.187   3.654   3.478
 2457SOL    HW118710   1.211   3.714   3.402
 2457SOL    HW218711   1.194   3.559   3.448
 2458SOL     OW18712   0.317   2.113   3.663
 2458SOL    HW118713   0.388   2.184   3.669
 2458SOL    HW218714   0.229   2.152   3.691
 2459SOL     OW18715   1.466   3.279   2.815
 2459SOL    HW118716   1.407   3.285   2.895
 2459SOL    HW218717   1.451   3.191   2.769
 2460SOL     OW18718   1.667   3.576   2.434
 2460SOL    HW118719   1.626   3.553   2.346
 2460SOL    HW218720   1.649   3.502   2.499
 2461SOL     OW18721   0.598   2.591   2.132
 2461SOL    HW118722   0.622   2.660   2.064
 2461SOL    HW218723   0.520   2.624   2.186
 2462SOL     OW18724   1.281   2.207   2.806
 2462SOL    HW118725   1.195   2.157   2.793
 2462SOL    HW218726   1.343   2.153   2.862
 2463SOL     OW18727   1.576   3.524   2.169
 2463SOL    HW118728   1.665   3.570   2.172
 2463SOL    HW218729   1.555   3.500   2.074
 2464SOL     OW18730   0.807   2.467   3.327
 2464SOL    HW118731   0.760   2.464   3.416
 2464SOL    HW218732   0.756   2.412   3.261
 2465SOL     OW18733   1.394   2.331   3.536
 2465SOL    HW118734   1.374   2.374   3.624
 2465SOL    HW218735   1.472   2.269   3.545
 2466SOL     OW18736   0.973   2.752   3.434
 2466SOL    HW118737   1.019   2.668   3.405
 2466SOL    HW218738   0.917   2.786   3.359
 2467SOL     OW18739   0.991   2.272   3.104
 2467SOL    HW118740   0.914   2.306   3.158
 2467SOL    HW218741   0.957   2.221   3.025
 2468SOL     OW18742   1.041   2.563   2.291
 2468SOL    HW118743   1.067   2.559   2.387
 2468SOL    HW218744   0.956   2.512   2.277
 2469SOL     OW18745   0.076   2.673   2.651
 2469SOL    HW118746   0.175   2.661   2.660
 2469SOL    HW218747   0.052   2.768   2.672
 2470SOL     OW18748   0.130   3.683   3.433
 2470SOL    HW118749   0.120   3.668   3.532
 2470SOL    HW218750   0.044   3.719   3.397
 2471SOL     OW18751   0.865   2.210   2.057
 2471SOL    HW118752   0.924   2.273   2.008
 2471SOL    HW218753   0.884   2.116   2.028
 2472SOL     OW18754   1.719   2.447   3.693
 2472SOL    HW118755   1.693   2.536   3.657
 2472SOL    HW218756   1.717   2.379   3.620
 2473SOL     OW18757   1.362   3.006   2.407
 2473SOL    HW118758   1.445   2.977   2.359
 2473SOL    HW218759   1.313   3.073   2.351
 2474SOL     OW18760   0.550   2.058   2.747
 2474SOL    HW118761   0.545   2.053   2.847
 2474SOL    HW218762   0.552   2.154   2.718
 2475SOL     OW18763   1.008   3.318   2.339
 2475SOL    HW118764   0.962   3.390   2.287
 2475SOL    HW218765   1.004   3.338   2.437
 2476SOL     OW18766   0.351   3.663   2.715
 2476SOL    HW118767   0.401   3.577   2.721
 2476SOL    HW218768   0.416   3.740   2.712
 2477SOL     OW18769   1.795   2.928   2.735
 2477SOL    HW118770   1.733   2.913   2.659
 2477SOL    HW218771   1.743   2.939   2.820
 2478SOL     OW18772   1.227   3.412   3.368
 2478SOL    HW118773   1.233   3.335   3.432
 2478SOL    HW218774   1.175   3.386   3.288
 2479SOL     OW18775   0.321   2.805   2.104
 2479SOL    HW118776   0.403   2.844   2.062
 2479SOL    HW218777   0.294   2.723   2.055
 2480SOL     OW18778   1.458   2.597   2.590
 2480SOL    HW118779   1.453   2.532   2.665
 2480SOL    HW218780   1.538   2.656   2.603
 2481SOL     OW18781   0.461   3.128   3.589
 2481SOL    HW118782   0.411   3.129   3.503
 2481SOL    HW218783   0.398   3.110   3.665
 2482SOL     OW18784   1.111   3.638   2.099
 2482SOL    HW118785   1.051   3.576   2.149
 2482SOL    HW218786   1.142   3.594   2.014
 2483SOL     OW18787   0.202   2.147   3.360
 2483SOL    HW118788   0.122   2.207   3.347
 2483SOL    HW218789   0.192   2.098   3.446
 2484SOL     OW18790   1.632   3.239   1.943
 2484SOL    HW118791   1.600   3.333   1.933
 2484SOL    HW218792   1.556   3.176   1.931
 2485SOL     OW18793   0.464   3.605   2.185
 2485SOL    HW118794   0.497   3.644   2.271
 2485SOL    HW218795   0.540   3.598   2.120
 2486SOL     OW18796   1.400   1.969   2.288
 2486SOL    HW118797   1.376   1.932   2.198
 2486SOL    HW218798   1.499   1.985   2.292
 2487SOL     OW18799   0.249   3.647   3.103
 2487SOL    HW118800   0.306   3.582   3.153
 2487SOL    HW218801   0.233   3.614   3.010
 2488SOL     OW18802   0.940   3.560   2.766
 2488SOL    HW118803   1.020   3.503   2.787
 2488SOL    HW218804   0.891   3.520   2.689
 2489SOL     OW18805   0.382   2.562   2.342
 2489SOL    HW118806   0.427   2.472   2.339
 2489SOL    HW218807   0.288   2.551   2.375
 2490SOL     OW18808   1.547   2.084   3.591
 2490SOL    HW118809   1.542   2.121   3.683
 2490SOL    HW218810   1.475   2.015   3.579
 2491SOL     OW18811   0.614   1.984   1.979
 2491SOL    HW118812   0.712   1.962   1.986
 2491SOL    HW218813   0.583   1.967   1.886
 2492SOL     OW18814   0.781   2.126   3.611
 2492SOL    HW118815   0.848   2.065   3.654
 2492SOL    HW218816   0.708   2.145   3.676
 2493SOL     OW18817   0.888   3.376   3.057
 2493SOL    HW118818   0.865   3.351   2.963
 2493SOL    HW218819   0.949   3.307   3.096
 2494SOL     OW18820   1.351   2.452   3.295
 2494SOL    HW118821   1.379   2.409   3.380
 2494SOL    HW218822   1.376   2.548   3.296
 2495SOL     OW18823   0.803   3.264   2.786
 2495SOL    HW118824   0.893   3.278   2.744
 2495SOL    HW218825   0.732   3.266   2.715
 2496SOL     OW18826   0.922   2.365   2.761
 2496SOL    HW118827   0.897   2.356   2.665
 2496SOL    HW218828   0.970   2.283   2.792
 2497SOL     OW18829   0.539   1.926   2.374
 2497SOL    HW118830   0.458   1.927   2.432
 2497SOL    HW218831   0.542   2.009   2.319
 2498SOL     OW18832   1.434   3.050   1.903
 2498SOL    HW118833   1.466   2.974   1.960
 2498SOL    HW218834   1.342   3.077   1.933
 2499SOL     OW18835   0.297   1.897   2.033
 2499SOL    HW118836   0.346   1.981   2.012
 2499SOL    HW218837   0.359   1.832   2.078
 2500SOL     OW18838   0.935   2.098   2.342
 2500SOL    HW118839   0.887   2.139   2.264
 2500SOL    HW218840   1.034   2.096   2.323
 2501SOL     OW18841   1.076   2.545   3.326
 2501SOL    HW118842   0.996   2.484   3.329
 2501SOL    HW218843   1.157   2.492   3.302
 2502SOL     OW18844   1.227   3.432   2.655
 2502SOL    HW118845   1.248   3.506   2.590
 2502SOL    HW218846   1.295   3.432   2.728
 2503SOL     OW18847   0.459   3.014   2.603
 2503SOL    HW118848   0.388   2.987   2.668
 2503SOL    HW218849   0.433   2.986   2.510
 2504SOL     OW18850   1.271   3.659   2.453
 2504SOL    HW118851   1.315   3.723   2.389
 2504SOL    HW218852   1.221   3.711   2.523
 2505SOL     OW18853   1.032   2.411   1.878
 2505SOL    HW118854   0.991   2.493   1.839
 2505SOL    HW218855   1.096   2.437   1.951
 2506SOL     OW18856   0.078   2.418   3.248
 2506SOL    HW118857   0.170   2.417   3.207
 2506SOL    HW218858   0.072   2.492   3.315
 2507SOL     OW18859   0.561   2.084   3.009
 2507SOL    HW118860   0.599   2.000   3.046
 2507SOL    HW218861   0.473   2.103   3.053
 2508SOL     OW18862   0.866   2.316   2.504
 2508SOL    HW118863   0.834   2.388   2.442
 2508SOL    HW218864   0.890   2.235   2.451
 2509SOL     OW18865   1.017   1.901   2.615
 2509SOL    HW118866   0.945   1.906   2.546
 2509SOL    HW218867   0.993   1.832   2.684
 2510SOL     OW18868   1.429   3.035   2.729
 2510SOL    HW118869   1.374   2.951   2.722
 2510SOL    HW218870   1.455   3.064   2.637
 2511SOL     OW18871   1.466   2.452   2.854
 2511SOL    HW118872   1.436   2.357   2.861
 2511SOL    HW218873   1.539   2.468   2.920
 2512SOL     OW18874   1.857   2.695   2.239
 2512SOL    HW118875   1.899   2.631   2.303
 2512SOL    HW218876   1.819   2.644   2.161
 2513SOL     OW18877   0.488   3.247   2.036
 2513SOL    HW118878   0.401   3.232   2.083
 2513SOL    HW218879   0.471   3.273   1.941
 2514SOL     OW18880   1.664   3.142   2.519
 2514SOL    HW118881   1.763   3.150   2.533
 2514SOL    HW218882   1.619   3.226   2.550
 2515SOL     OW18883   1.390   2.437   1.940
 2515SOL    HW118884   1.336   2.416   2.021
 2515SOL    HW218885   1.481   2.396   1.949
 2516SOL     OW18886   0.527   2.118   2.190
 2516SOL    HW118887   0.554   2.059   2.115
 2516SOL    HW218888   0.527   2.213   2.159
 2517SOL     OW18889   1.754   3.085   3.450
 2517SOL    HW118890   1.845   3.046   3.437
 2517SOL    HW218891   1.762   3.181   3.474
 2518SOL     OW18892   1.064   3.209   3.202
 2518SOL    HW118893   0.984   3.186   3.257
 2518SOL    HW218894   1.147   3.183   3.251
 2519SOL     OW18895   1.592   3.491   3.487
 2519SOL    HW118896   1.619   3.525   3.397
 2519SOL    HW218897   1.671   3.453   3.533
 2520SOL     OW18898   1.111   3.057   2.962
 2520SOL    HW118899   1.071   3.101   3.043
 2520SOL    HW218900   1.070   3.094   2.879
 2521SOL     OW18901   1.638   2.961   2.941
 2521SOL    HW118902   1.643   3.042   3.000
 2521SOL    HW218903   1.552   2.963   2.890
 2522SOL     OW18904   0.915   1.951   3.264
 2522SOL    HW118905   0.940   1.931   3.169
 2522SOL    HW218906   0.987   2.007   3.306
 2523SOL     OW18907   0.980   2.978   3.581
 2523SOL    HW118908   0.881   2.984   3.591
 2523SOL    HW218909   1.003   2.898   3.525
 2524SOL     OW18910   0.705   2.912   2.230
 2524SOL    HW118911   0.691   2.919   2.329
 2524SOL    HW218912   0.789   2.861   2.212
 2525SOL     OW18913   0.410   2.675   3.113
 2525SOL    HW118914   0.496   2.687   3.163
 2525SOL    HW218915   0.368   2.588   3.140
 2526SOL     OW18916   1.274   2.248   3.124
 2526SOL    HW118917   1.295   2.322   3.188
 2526SOL    HW218918   1.185   2.265   3.081
 2527SOL     OW18919   0.064   3.426   3.193
 2527SOL    HW118920   0.018   3.508   3.159
 2527SOL    HW218921   0.162   3.445   3.202
 2528SOL     OW18922   0.367   2.962   2.363
 2528SOL    HW118923   0.360   3.045   2.307
 2528SOL    HW218924   0.371   2.882   2.303
 2529SOL     OW18925   0.566   2.399   2.727
 2529SOL    HW118926   0.578   2.465   2.653
 2529SOL    HW218927   0.612   2.433   2.810
 2530SOL     OW18928   1.252   3.210   2.250
 2530SOL    HW118929   1.302   3.287   2.290
 2530SOL    HW218930   1.157   3.212   2.282
 2531SOL     OW18931   1.272   3.307   3.004
 2531SOL    HW118932   1.319   3.320   3.091
 2531SOL    HW218933   1.206   3.233   3.013
 2532SOL     OW18934   1.582   2.501   2.334
 2532SOL    HW118935   1.551   2.562   2.407
 2532SOL    HW218936   1.632   2.553   2.265
 2533SOL     OW18937   0.354   3.372   3.191
 2533SOL    HW118938   0.333   3.328   3.104
 2533SOL    HW218939   0.451   3.398   3.194
 2534SOL     OW18940   0.402   2.613   3.460
 2534SOL    HW118941   0.470   2.668   3.413
 2534SOL    HW218942   0.442   2.525   3.487
 2535SOL     OW18943   1.587   2.641   3.532
 2535SOL    HW118944   1.495   2.679   3.527
 2535SOL    HW218945   1.647   2.688   3.467
 2536SOL     OW18946   1.013   1.967   3.632
 2536SOL    HW118947   1.019   2.052   3.580
 2536SOL    HW218948   1.045   1.891   3.575
 2537SOL     OW18949   0.504   1.912   3.602
 2537SOL    HW118950   0.462   1.855   3.532
 2537SOL    HW218951   0.438   1.981   3.634
 2538SOL     OW18952   0.573   2.732   2.891
 2538SOL    HW118953   0.617   2.821   2.882
 2538SOL    HW218954   0.510   2.732   2.968
 2539SOL     OW18955   1.360   2.724   2.907
 2539SOL    HW118956   1.285   2.724   2.841
 2539SOL    HW218957   1.397   2.632   2.916
 2540SOL     OW18958   1.209   2.387   2.137
 2540SOL    HW118959   1.222   2.303   2.191
 2540SOL    HW218960   1.180   2.461   2.197
 2541SOL     OW18961   0.307   2.075   3.093
 2541SOL    HW118962   0.284   2.112   3.183
 2541SOL    HW218963   0.277   1.980   3.087
 2542SOL     OW18964   0.037   3.172   3.144
 2542SOL    HW118965   0.090   3.123   3.212
 2542SOL    HW218966   0.059   3.270   3.149
 2543SOL     OW18967   0.732   2.496   2.926
 2543SOL    HW118968   0.791   2.470   2.850
 2543SOL    HW218969   0.704   2.592   2.915
 2544SOL     OW18970   1.728   2.797   3.716
 2544SOL    HW118971   1.682   2.790   3.627
 2544SOL    HW218972   1.666   2.841   3.782
 2545SOL     OW18973   0.307   1.925   2.480
 2545SOL    HW118974   0.296   2.019   2.513
 2545SOL    HW218975   0.302   1.862   2.557
 2546SOL     OW18976   1.622   2.229   2.236
 2546SOL    HW118977   1.624   2.153   2.300
 2546SOL    HW218978   1.574   2.306   2.276
 2547SOL     OW18979   1.023   2.628   2.828
 2547SOL    HW118980   1.038   2.649   2.924
 2547SOL    HW218981   0.993   2.533   2.819
 2548SOL     OW18982   0.980   3.435   3.562
 2548SOL    HW118983   0.960   3.479   3.474
 2548SOL    HW218984   1.019   3.344   3.546
 2549SOL     OW18985   1.859   3.380   3.467
 2549SOL    HW118986   1.873   3.407   3.372
 2549SOL    HW218987   1.942   3.402   3.520
 2550SOL     OW18988   0.350   2.760   3.666
 2550SOL    HW118989   0.426   2.804   3.714
 2550SOL    HW218990   0.385   2.713   3.584
 2551SOL     OW18991   1.540   2.136   1.987
 2551SOL    HW118992   1.479   2.061   2.010
 2551SOL    HW218993   1.562   2.188   2.070
 2552SOL     OW18994   1.303   2.700   1.904
 2552SOL    HW118995   1.337   2.607   1.919
 2552SOL    HW218996   1.321   2.727   1.809
 2553SOL     OW18997   1.068   3.195   2.711
 2553SOL    HW118998   1.075   3.111   2.656
 2553SOL    HW218999   1.130   3.264   2.675
 2554SOL     OW19000   0.319   2.672   2.811
 2554SOL    HW119001   0.412   2.708   2.816
 2554SOL    HW219002   0.313   2.587   2.863
 2555SOL     OW19003   0.339   2.371   2.868
 2555SOL    HW119004   0.287   2.288   2.851
 2555SOL    HW219005   0.416   2.376   2.804
 2556SOL     OW19006   1.138   2.242   3.540
 2556SOL    HW119007   1.093   2.305   3.604
 2556SOL    HW219008   1.231   2.273   3.523
 2557SOL     OW19009   1.160   2.069   3.339
 2557SOL    HW119010   1.160   2.133   3.416
 2557SOL    HW219011   1.188   2.117   3.256
 2558SOL     OW19012   0.008   3.188   2.062
 2558SOL    HW119013  -0.085   3.209   2.031
 2558SOL    HW219014   0.018   3.089   2.075
 2559SOL     OW19015   0.088   3.663   2.789
 2559SOL    HW119016   0.046   3.577   2.762
 2559SOL    HW219017   0.182   3.666   2.755
 2560SOL     OW19018   0.504   3.430   2.772
 2560SOL    HW119019   0.570   3.504   2.781
 2560SOL    HW219020   0.548   3.351   2.730
 2561SOL     OW19021   1.002   2.658   3.100
 2561SOL    HW119022   1.043   2.626   3.186
 2561SOL    HW219023   0.906   2.631   3.097
 2562SOL     OW19024   0.040   2.406   2.976
 2562SOL    HW119025   0.125   2.373   2.935
 2562SOL    HW219026   0.053   2.421   3.074
 2563SOL     OW19027   0.189   2.382   3.584
 2563SOL    HW119028   0.248   2.342   3.514
 2563SOL    HW219029   0.131   2.453   3.543
 2564SOL     OW19030   1.369   2.812   3.522
 2564SOL    HW119031   1.408   2.901   3.542
 2564SOL    HW219032   1.379   2.792   3.425
 2565SOL     OW19033   0.815   2.434   2.187
 2565SOL    HW119034   0.822   2.345   2.141
 2565SOL    HW219035   0.721   2.468   2.179
 2566SOL     OW19036   1.657   2.466   3.068
 2566SOL    HW119037   1.619   2.397   3.130
 2566SOL    HW219038   1.739   2.430   3.024
 2567SOL     OW19039   0.252   3.426   3.606
 2567SOL    HW119040   0.222   3.483   3.682
 2567SOL    HW219041   0.245   3.329   3.632
 2568SOL     OW19042   0.671   2.326   3.131
 2568SOL    HW119043   0.637   2.237   3.101
 2568SOL    HW219044   0.697   2.380   3.051
 2569SOL     OW19045   0.930   3.540   3.327
 2569SOL    HW119046   0.906   3.522   3.232
 2569SOL    HW219047   0.960   3.634   3.337
 2570SOL     OW19048   0.473   2.362   2.053
 2570SOL    HW119049   0.534   2.442   2.057
 2570SOL    HW219050   0.378   2.393   2.060
 2571SOL     OW19051   0.159   2.999   3.328
 2571SOL    HW119052   0.181   2.938   3.404
 2571SOL    HW219053   0.169   2.950   3.242
 2572SOL     OW19054   1.347   2.921   3.096
 2572SOL    HW119055   1.371   2.858   3.022
 2572SOL    HW219056   1.257   2.961   3.078
 2573SOL     OW19057   1.302   2.717   2.171
 2573SOL    HW119058   1.216   2.686   2.213
 2573SOL    HW219059   1.298   2.703   2.072
 2574SOL     OW19060   1.759   3.609   3.016
 2574SOL    HW119061   1.820   3.639   2.943
 2574SOL    HW219062   1.721   3.520   2.994
 2575SOL     OW19063   1.252   3.593   2.990
 2575SOL    HW119064   1.336   3.598   2.936
 2575SOL    HW219065   1.229   3.497   3.008
 2576SOL     OW19066   0.083   3.120   2.884
 2576SOL    HW119067   0.078   3.119   2.984
 2576SOL    HW219068   0.000   3.079   2.846
 2577SOL     OW19069   0.688   3.524   3.578
 2577SOL    HW119070   0.632   3.605   3.587
 2577SOL    HW219071   0.740   3.528   3.492
 2578SOL     OW19072   1.726   1.997   2.385
 2578SOL    HW119073   1.799   1.980   2.318
 2578SOL    HW219074   1.695   1.910   2.423
 2579SOL     OW19075   1.388   3.435   2.339
 2579SOL    HW119076   1.455   3.447   2.265
 2579SOL    HW219077   1.348   3.524   2.362
 2580SOL     OW19078   0.130   3.656   3.713
 2580SOL    HW119079   0.089   3.582   3.766
 2580SOL    HW219080   0.194   3.707   3.771
 2581SOL     OW19081   1.280   2.789   2.534
 2581SOL    HW119082   1.340   2.708   2.536
 2581SOL    HW219083   1.320   2.858   2.474
 2582SOL     OW19084   0.830   3.135   3.284
 2582SOL    HW119085   0.825   3.168   3.379
 2582SOL    HW219086   0.744   3.154   3.238
 2583SOL     OW19087   0.672   3.478   2.016
 2583SOL    HW119088   0.681   3.488   1.917
 2583SOL    HW219089   0.632   3.389   2.037
 2584SOL     OW19090   1.650   3.582   3.256
 2584SOL    HW119091   1.703   3.592   3.172
 2584SOL    HW219092   1.623   3.672   3.290
 2585SOL     OW19093   1.841   2.037   2.825
 2585SOL    HW119094   1.880   1.952   2.789
 2585SOL    HW219095   1.743   2.039   2.806
 2586SOL     OW19096   0.263   2.188   2.582
 2586SOL    HW119097   0.184   2.239   2.548
 2586SOL    HW219098   0.254   2.173   2.680
 2587SOL     OW19099   1.194   3.474   1.893
 2587SOL    HW119100   1.200   3.381   1.930
 2587SOL    HW219101   1.135   3.474   1.813
 2588SOL     OW19102   0.822   2.864   3.234
 2588SOL    HW119103   0.862   2.863   3.142
 2588SOL    HW219104   0.832   2.956   3.274
 2589SOL     OW19105   0.916   2.772   2.153
 2589SOL    HW119106   0.979   2.810   2.085
 2589SOL    HW219107   0.956   2.689   2.192
 2590SOL     OW19108   1.504   3.469   1.906
 2590SOL    HW119109   1.412   3.506   1.913
 2590SOL    HW219110   1.542   3.489   1.816
 2591SOL     OW19111   0.372   3.150   3.352
 2591SOL    HW119112   0.359   3.243   3.318
 2591SOL    HW219113   0.288   3.098   3.339
 2592SOL     OW19114   1.614   3.154   3.151
 2592SOL    HW119115   1.674   3.157   3.231
 2592SOL    HW219116   1.539   3.218   3.164
 2593SOL     OW19117   1.039   2.960   2.558
 2593SOL    HW119118   0.969   2.913   2.612
 2593SOL    HW219119   1.098   2.892   2.515
 2594SOL     OW19120   1.014   2.098   2.833
 2594SOL    HW119121   1.006   2.062   2.740
 2594SOL    HW219122   1.012   2.022   2.898
 2595SOL     OW19123   0.590   3.349   2.353
 2595SOL    HW119124   0.632   3.291   2.283
 2595SOL    HW219125   0.546   3.428   2.309
 2596SOL     OW19126   1.709   2.247   3.243
 2596SOL    HW119127   1.782   2.316   3.247
 2596SOL    HW219128   1.737   2.172   3.184
 2597SOL     OW19129   0.255   3.210   2.152
 2597SOL    HW119130   0.159   3.211   2.125
 2597SOL    HW219131   0.267   3.263   2.236
 2598SOL     OW19132   0.105   2.875   3.588
 2598SOL    HW119133   0.028   2.842   3.642
 2598SOL    HW219134   0.190   2.845   3.630
 2599SOL     OW19135   0.672   2.065   3.351
 2599SOL    HW119136   0.762   2.049   3.311
 2599SOL    HW219137   0.680   2.070   3.450
 2600SOL     OW19138   0.075   2.207   1.895
 2600SOL    HW119139  -0.017   2.179   1.866
 2600SOL    HW219140   0.106   2.284   1.839
 2601SOL     OW19141   1.440   2.718   3.260
 2601SOL    HW119142   1.383   2.770   3.197
 2601SOL    HW219143   1.536   2.730   3.236
 2602SOL     OW19144   0.072   2.028   2.180
 2602SOL    HW119145   0.055   2.111   2.126
 2602SOL    HW219146   0.162   1.991   2.158
 2603SOL     OW19147   1.183   3.197   1.981
 2603SOL    HW119148   1.084   3.186   1.983
 2603SOL    HW219149   1.217   3.212   2.074
 2604SOL     OW19150   0.613   2.704   3.293
 2604SOL    HW119151   0.669   2.785   3.276
 2604SOL    HW219152   0.672   2.624   3.296
 2605SOL     OW19153   1.493   3.629   2.821
 2605SOL    HW119154   1.526   3.693   2.752
 2605SOL    HW219155   1.559   3.623   2.896
 2606SOL     OW19156   0.716   2.427   3.570
 2606SOL    HW119157   0.735   2.492   3.644
 2606SOL    HW219158   0.776   2.347   3.579
 2607SOL     OW19159   1.450   3.082   3.495
 2607SOL    HW119160   1.441   3.072   3.594
 2607SOL    HW219161   1.546   3.075   3.469
 2608SOL     OW19162   0.390   3.603   3.422
 2608SOL    HW119163   0.299   3.644   3.420
 2608SOL    HW219164   0.383   3.509   3.454
 2609SOL     OW19165   1.674   2.745   3.116
 2609SOL    HW119166   1.647   2.656   3.079
 2609SOL    HW219167   1.675   2.813   3.043
 2610SOL     OW19168   1.225   2.187   2.311
 2610SOL    HW119169   1.290   2.113   2.300
 2610SOL    HW219170   1.245   2.237   2.395
 2611SOL     OW19171   0.594   2.607   2.514
 2611SOL    HW119172   0.644   2.692   2.495
 2611SOL    HW219173   0.506   2.609   2.466
 2612SOL     OW19174   1.777   2.204   3.504
 2612SOL    HW119175   1.760   2.235   3.410
 2612SOL    HW219176   1.693   2.167   3.542
 2613SOL     OW19177   1.730   2.796   3.379
 2613SOL    HW119178   1.768   2.887   3.394
 2613SOL    HW219179   1.722   2.779   3.280
 2614SOL     OW19180   0.859   3.236   1.878
 2614SOL    HW119181   0.813   3.251   1.966
 2614SOL    HW219182   0.903   3.321   1.848
 2615SOL     OW19183   0.661   3.652   2.815
 2615SOL    HW119184   0.615   3.740   2.802
 2615SOL    HW219185   0.760   3.664   2.808
 2616SOL     OW19186   0.859   2.818   2.723
 2616SOL    HW119187   0.913   2.749   2.771
 2616SOL    HW219188   0.827   2.887   2.789
 2617SOL     OW19189   1.083   2.846   1.949
 2617SOL    HW119190   1.060   2.899   1.867
 2617SOL    HW219191   1.164   2.790   1.930
 2618SOL     OW19192   1.861   3.431   2.713
 2618SOL    HW119193   1.790   3.419   2.643
 2618SOL    HW219194   1.862   3.352   2.773
 2619SOL     OW19195   0.221   3.176   3.706
 2619SOL    HW119196   0.156   3.103   3.685
 2619SOL    HW219197   0.225   3.190   3.804
 2620SOL     OW19198   0.079   3.102   2.515
 2620SOL    HW119199   0.078   3.055   2.603
 2620SOL    HW219200   0.161   3.074   2.464
 2621SOL     OW19201   0.672   3.253   3.486
 2621SOL    HW119202   0.594   3.203   3.524
 2621SOL    HW219203   0.669   3.348   3.517
 2622SOL     OW19204   1.824   2.054   3.089
 2622SOL    HW119205   1.820   1.964   3.133
 2622SOL    HW219206   1.827   2.043   2.990
 2623SOL     OW19207   0.428   2.286   2.382
 2623SOL    HW119208   0.458   2.214   2.320
 2623SOL    HW219209   0.389   2.246   2.465
 2624SOL     OW19210   1.705   3.349   2.966
 2624SOL    HW119211   1.612   3.324   2.939
 2624SOL    HW219212   1.731   3.299   3.048
 2625SOL     OW19213   0.317   2.409   3.142
 2625SOL    HW119214   0.355   2.350   3.214
 2625SOL    HW219215   0.357   2.383   3.054
 2626SOL     OW19216   0.812   3.448   2.549
 2626SOL    HW119217   0.844   3.458   2.455
 2626SOL    HW219218   0.733   3.386   2.551
 2627SOL     OW19219   1.424   2.076   2.974
 2627SOL    HW119220   1.476   2.011   3.029
 2627SOL    HW219221   1.375   2.139   3.035
 2628SOL     OW19222   1.001   1.896   3.016
 2628SOL    HW119223   0.938   1.824   2.985
 2628SOL    HW219224   1.094   1.860   3.016
 2629SOL     OW19225   0.770   3.192   2.163
 2629SOL    HW119226   0.724   3.105   2.180
 2629SOL    HW219227   0.861   3.189   2.204
 2630SOL     OW19228   0.618   3.429   3.146
 2630SOL    HW119229   0.613   3.511   3.203
 2630SOL    HW219230   0.707   3.426   3.101
 2631SOL     OW19231   1.352   1.914   2.030
 2631SOL    HW119232   1.387   1.873   1.946
 2631SOL    HW219233   1.262   1.876   2.050
 2632SOL     OW19234   1.300   2.315   2.553
 2632SOL    HW119235   1.241   2.395   2.557
 2632SOL    HW219236   1.315   2.280   2.646
 2633SOL     OW19237   1.593   2.083   2.744
 2633SOL    HW119238   1.509   2.082   2.798
 2633SOL    HW219239   1.595   2.166   2.688
 2634SOL     OW19240   0.039   2.939   2.162
 2634SOL    HW119241   0.138   2.928   2.153
 2634SOL    HW219242  -0.001   2.853   2.194
 2635SOL     OW19243   0.875   3.508   2.199
 2635SOL    HW119244   0.798   3.473   2.145
 2635SOL    HW219245   0.843   3.579   2.261
 2636SOL     OW19246   0.230   2.490   3.837
 2636SOL    HW119247   0.137   2.488   3.874
 2636SOL    HW219248   0.231   2.451   3.745
 2637SOL     OW19249   0.225   2.137   4.720
 2637SOL    HW119250   0.260   2.120   4.812
 2637SOL    HW219251   0.137   2.092   4.708
 2638SOL     OW19252   0.019   2.230   4.371
 2638SOL    HW119253  -0.063   2.273   4.410
 2638SOL    HW219254  -0.009   2.157   4.308
 2639SOL     OW19255   0.569   3.137   4.889
 2639SOL    HW119256   0.476   3.130   4.852
 2639SOL    HW219257   0.580   3.226   4.933
 2640SOL     OW19258   1.555   3.373   4.427
 2640SOL    HW119259   1.498   3.357   4.508
 2640SOL    HW219260   1.496   3.383   4.347
 2641SOL     OW19261   1.135   2.565   4.441
 2641SOL    HW119262   1.192   2.643   4.416
 2641SOL    HW219263   1.075   2.591   4.517
 2642SOL     OW19264   1.755   2.469   3.955
 2642SOL    HW119265   1.743   2.456   3.856
 2642SOL    HW219266   1.725   2.388   4.004
 2643SOL     OW19267   0.768   3.006   4.747
 2643SOL    HW119268   0.690   3.023   4.807
 2643SOL    HW219269   0.802   3.093   4.711
 2644SOL     OW19270   0.850   2.660   5.547
 2644SOL    HW119271   0.846   2.736   5.612
 2644SOL    HW219272   0.872   2.696   5.456
 2645SOL     OW19273   0.685   2.874   4.389
 2645SOL    HW119274   0.754   2.858   4.459
 2645SOL    HW219275   0.612   2.931   4.427
 2646SOL     OW19276   0.686   3.023   5.527
 2646SOL    HW119277   0.746   3.102   5.541
 2646SOL    HW219278   0.600   3.054   5.486
 2647SOL     OW19279   0.335   3.297   4.785
 2647SOL    HW119280   0.257   3.266   4.732
 2647SOL    HW219281   0.393   3.355   4.728
 2648SOL     OW19282   1.460   3.367   5.063
 2648SOL    HW119283   1.484   3.461   5.089
 2648SOL    HW219284   1.444   3.313   5.145
 2649SOL     OW19285   0.438   2.254   5.223
 2649SOL    HW119286   0.520   2.198   5.232
 2649SOL    HW219287   0.357   2.196   5.227
 2650SOL     OW19288   1.603   2.309   4.461
 2650SOL    HW119289   1.529   2.355   4.411
 2650SOL    HW219290   1.654   2.377   4.514
 2651SOL     OW19291   0.231   3.575   4.207
 2651SOL    HW119292   0.265   3.652   4.261
 2651SOL    HW219293   0.275   3.575   4.117
 2652SOL     OW19294   1.127   3.203   5.414
 2652SOL    HW119295   1.174   3.203   5.502
 2652SOL    HW219296   1.079   3.116   5.403
 2653SOL     OW19297   0.230   3.296   4.262
 2653SOL    HW119298   0.204   3.392   4.262
 2653SOL    HW219299   0.159   3.242   4.307
 2654SOL     OW19300   0.240   2.953   4.610
 2654SOL    HW119301   0.254   2.869   4.662
 2654SOL    HW219302   0.185   3.017   4.665
 2655SOL     OW19303   0.620   3.648   5.163
 2655SOL    HW119304   0.528   3.631   5.198
 2655SOL    HW219305   0.648   3.740   5.189
 2656SOL     OW19306   0.606   2.826   3.847
 2656SOL    HW119307   0.613   2.910   3.793
 2656SOL    HW219308   0.652   2.839   3.935
 2657SOL     OW19309   1.594   1.976   5.204
 2657SOL    HW119310   1.576   2.043   5.132
 2657SOL    HW219311   1.591   2.022   5.293
 2658SOL     OW19312   0.122   2.505   4.287
 2658SOL    HW119313   0.077   2.417   4.304
 2658SOL    HW219314   0.121   2.559   4.371
 2659SOL     OW19315   1.842   3.629   4.083
 2659SOL    HW119316   1.896   3.600   4.163
 2659SOL    HW219317   1.872   3.719   4.054
 2660SOL     OW19318   0.027   3.458   3.841
 2660SOL    HW119319   0.008   3.362   3.862
 2660SOL    HW219320  -0.006   3.516   3.916
 2661SOL     OW19321   1.689   2.784   4.336
 2661SOL    HW119322   1.784   2.755   4.344
 2661SOL    HW219323   1.681   2.849   4.261
 2662SOL     OW19324   1.641   2.970   4.156
 2662SOL    HW119325   1.727   2.972   4.104
 2662SOL    HW219326   1.655   3.017   4.244
 2663SOL     OW19327   0.113   2.599   5.321
 2663SOL    HW119328   0.201   2.586   5.366
 2663SOL    HW219329   0.100   2.696   5.299
 2664SOL     OW19330   0.613   3.227   4.450
 2664SOL    HW119331   0.564   3.140   4.459
 2664SOL    HW219332   0.590   3.270   4.363
 2665SOL     OW19333   1.293   3.090   5.147
 2665SOL    HW119334   1.330   3.017   5.089
 2665SOL    HW219335   1.345   3.095   5.232
 2666SOL     OW19336   0.809   1.866   4.226
 2666SOL    HW119337   0.849   1.957   4.217
 2666SOL    HW219338   0.709   1.874   4.232
 2667SOL     OW19339   0.197   2.838   4.988
 2667SOL    HW119340   0.286   2.793   4.974
 2667SOL    HW219341   0.124   2.773   4.969
 2668SOL     OW19342   1.525   2.861   3.914
 2668SOL    HW119343   1.462   2.785   3.927
 2668SOL    HW219344   1.573   2.879   4.000
 2669SOL     OW19345   1.187   3.654   5.340
 2669SOL    HW119346   1.211   3.714   5.264
 2669SOL    HW219347   1.194   3.559   5.310
 2670SOL     OW19348   0.317   2.113   5.525
 2670SOL    HW119349   0.388   2.184   5.531
 2670SOL    HW219350   0.229   2.152   5.553
 2671SOL     OW19351   1.466   3.279   4.677
 2671SOL    HW119352   1.407   3.285   4.757
 2671SOL    HW219353   1.451   3.191   4.631
 2672SOL     OW19354   1.667   3.576   4.296
 2672SOL    HW119355   1.626   3.553   4.208
 2672SOL    HW219356   1.649   3.502   4.361
 2673SOL     OW19357   0.598   2.591   3.994
 2673SOL    HW119358   0.622   2.660   3.926
 2673SOL    HW219359   0.520   2.624   4.048
 2674SOL     OW19360   1.281   2.207   4.668
 2674SOL    HW119361   1.195   2.157   4.655
 2674SOL    HW219362   1.343   2.153   4.724
 2675SOL     OW19363   1.576   3.524   4.031
 2675SOL    HW119364   1.665   3.570   4.034
 2675SOL    HW219365   1.555   3.500   3.936
 2676SOL     OW19366   0.807   2.467   5.189
 2676SOL    HW119367   0.760   2.464   5.278
 2676SOL    HW219368   0.756   2.412   5.123
 2677SOL     OW19369   1.394   2.331   5.398
 2677SOL    HW119370   1.374   2.374   5.486
 2677SOL    HW219371   1.472   2.269   5.407
 2678SOL     OW19372   0.973   2.752   5.296
 2678SOL    HW119373   1.019   2.668   5.267
 2678SOL    HW219374   0.917   2.786   5.221
 2679SOL     OW19375   0.991   2.272   4.966
 2679SOL    HW119376   0.914   2.306   5.020
 2679SOL    HW219377   0.957   2.221   4.887
 2680SOL     OW19378   1.041   2.563   4.153
 2680SOL    HW119379   1.067   2.559   4.249
 2680SOL    HW219380   0.956   2.512   4.139
 2681SOL     OW19381   0.076   2.673   4.513
 2681SOL    HW119382   0.175   2.661   4.522
 2681SOL    HW219383   0.052   2.768   4.534
 2682SOL     OW19384   0.130   3.683   5.295
 2682SOL    HW119385   0.120   3.668   5.394
 2682SOL    HW219386   0.044   3.719   5.259
 2683SOL     OW19387   0.865   2.210   3.919
 2683SOL    HW119388   0.924   2.273   3.870
 2683SOL    HW219389   0.884   2.116   3.890
 2684SOL     OW19390   1.719   2.447   5.555
 2684SOL    HW119391   1.693   2.536   5.519
 2684SOL    HW219392   1.717   2.379   5.482
 2685SOL     OW19393   1.362   3.006   4.269
 2685SOL    HW119394   1.445   2.977   4.221
 2685SOL    HW219395   1.313   3.073   4.213
 2686SOL     OW19396   0.550   2.058   4.609
 2686SOL    HW119397   0.545   2.053   4.709
 2686SOL    HW219398   0.552   2.154   4.580
 2687SOL     OW19399   1.008   3.318   4.201
 2687SOL    HW119400   0.962   3.390   4.149
 2687SOL    HW219401   1.004   3.338   4.299
 2688SOL     OW19402   0.351   3.663   4.577
 2688SOL    HW119403   0.401   3.577   4.583
 2688SOL    HW219404   0.416   3.740   4.574
 2689SOL     OW19405   1.795   2.928   4.597
 2689SOL    HW119406   1.733   2.913   4.521
 2689SOL    HW219407   1.743   2.939   4.682
 2690SOL     OW19408   1.227   3.412   5.230
 2690SOL    HW119409   1.233   3.335   5.294
 2690SOL    HW219410   1.175   3.386   5.150
 2691SOL     OW19411   0.321   2.805   3.966
 2691SOL    HW119412   0.403   2.844   3.924
 2691SOL    HW219413   0.294   2.723   3.917
 2692SOL     OW19414   1.458   2.597   4.452
 2692SOL    HW119415   1.453   2.532   4.527
 2692SOL    HW219416   1.538   2.656   4.465
 2693SOL     OW19417   0.461   3.128   5.451
 2693SOL    HW119418   0.411   3.129   5.365
 2693SOL    HW219419   0.398   3.110   5.527
 2694SOL     OW19420   1.111   3.638   3.961
 2694SOL    HW119421   1.051   3.576   4.011
 2694SOL    HW219422   1.142   3.594   3.876
 2695SOL     OW19423   0.202   2.147   5.222
 2695SOL    HW119424   0.122   2.207   5.209
 2695SOL    HW219425   0.192   2.098   5.308
 2696SOL     OW19426   1.632   3.239   3.805
 2696SOL    HW119427   1.600   3.333   3.795
 2696SOL    HW219428   1.556   3.176   3.793
 2697SOL     OW19429   0.464   3.605   4.047
 2697SOL    HW119430   0.497   3.644   4.133
 2697SOL    HW219431   0.540   3.598   3.982
 2698SOL     OW19432   1.400   1.969   4.150
 2698SOL    HW119433   1.376   1.932   4.060
 2698SOL    HW219434   1.499   1.985   4.154
 2699SOL     OW19435   0.249   3.647   4.965
 2699SOL    HW119436   0.306   3.582   5.015
 2699SOL    HW219437   0.233   3.614   4.872
 2700SOL     OW19438   0.940   3.560   4.628
 2700SOL    HW119439   1.020   3.503   4.649
 2700SOL    HW219440   0.891   3.520   4.551
 2701SOL     OW19441   0.382   2.562   4.204
 2701SOL    HW119442   0.427   2.472   4.201
 2701SOL    HW219443   0.288   2.551   4.237
 2702SOL     OW19444   1.547   2.084   5.453
 2702SOL    HW119445   1.542   2.121   5.545
 2702SOL    HW219446   1.475   2.015   5.441
 2703SOL     OW19447   0.614   1.984   3.841
 2703SOL    HW119448   0.712   1.962   3.848
 2703SOL    HW219449   0.583   1.967   3.748
 2704SOL     OW19450   0.781   2.126   5.473
 2704SOL    HW119451   0.848   2.065   5.516
 2704SOL    HW219452   0.708   2.145   5.538
 2705SOL     OW19453   0.888   3.376   4.919
 2705SOL    HW119454   0.865   3.351   4.825
 2705SOL    HW219455   0.949   3.307   4.958
 2706SOL     OW19456   1.351   2.452   5.157
 2706SOL    HW119457   1.379   2.409   5.242
 2706SOL    HW219458   1.376   2.548   5.158
 2707SOL     OW19459   0.803   3.264   4.648
 2707SOL    HW119460   0.893   3.278   4.606
 2707SOL    HW219461   0.732   3.266   4.577
 2708SOL     OW19462   0.539   1.926   4.236
 2708SOL    HW119463   0.458   1.927   4.294
 2708SOL    HW219464   0.542   2.009   4.181
 2709SOL     OW19465   1.434   3.050   3.765
 2709SOL    HW119466   1.466   2.974   3.822
 2709SOL    HW219467   1.342   3.077   3.795
 2710SOL     OW19468   0.297   1.897   3.895
 2710SOL    HW119469   0.346   1.981   3.874
 2710SOL    HW219470   0.359   1.832   3.940
 2711SOL     OW19471   0.935   2.098   4.204
 2711SOL    HW119472   0.887   2.139   4.126
 2711SOL    HW219473   1.034   2.096   4.185
 2712SOL     OW19474   1.076   2.545   5.188
 2712SOL    HW119475   0.996   2.484   5.191
 2712SOL    HW219476   1.157   2.492   5.164
 2713SOL     OW19477   1.227   3.432   4.517
 2713SOL    HW119478   1.248   3.506   4.452
 2713SOL    HW219479   1.295   3.432   4.590
 2714SOL     OW19480   0.459   3.014   4.465
 2714SOL    HW119481   0.388   2.987   4.530
 2714SOL    HW219482   0.433   2.986   4.372
 2715SOL     OW19483   1.271   3.659   4.315
 2715SOL    HW119484   1.315   3.723   4.251
 2715SOL    HW219485   1.221   3.711   4.385
 2716SOL     OW19486   1.032   2.411   3.740
 2716SOL    HW119487   0.991   2.493   3.701
 2716SOL    HW219488   1.096   2.437   3.813
 2717SOL     OW19489   0.078   2.418   5.110
 2717SOL    HW119490   0.170   2.417   5.069
 2717SOL    HW219491   0.072   2.492   5.177
 2718SOL     OW19492   0.561   2.084   4.871
 2718SOL    HW119493   0.599   2.000   4.908
 2718SOL    HW219494   0.473   2.103   4.915
 2719SOL     OW19495   1.017   1.901   4.477
 2719SOL    HW119496   0.945   1.906   4.408
 2719SOL    HW219497   0.993   1.832   4.546
 2720SOL     OW19498   1.429   3.035   4.591
 2720SOL    HW119499   1.374   2.951   4.584
 2720SOL    HW219500   1.455   3.064   4.499
 2721SOL     OW19501   1.466   2.452   4.716
 2721SOL    HW119502   1.436   2.357   4.723
 2721SOL    HW219503   1.539   2.468   4.782
 2722SOL     OW19504   1.857   2.695   4.101
 2722SOL    HW119505   1.899   2.631   4.165
 2722SOL    HW219506   1.819   2.644   4.023
 2723SOL     OW19507   0.488   3.247   3.898
 2723SOL    HW119508   0.401   3.232   3.945
 2723SOL    HW219509   0.471   3.273   3.803
 2724SOL     OW19510   1.664   3.142   4.381
 2724SOL    HW119511   1.763   3.150   4.395
 2724SOL    HW219512   1.619   3.226   4.412
 2725SOL     OW19513   1.390   2.437   3.802
 2725SOL    HW119514   1.336   2.416   3.883
 2725SOL    HW219515   1.481   2.396   3.811
 2726SOL     OW19516   0.527   2.118   4.052
 2726SOL    HW119517   0.554   2.059   3.977
 2726SOL    HW219518   0.527   2.213   4.021
 2727SOL     OW19519   1.754   3.085   5.312
 2727SOL    HW119520   1.845   3.046   5.299
 2727SOL    HW219521   1.762   3.181   5.336
 2728SOL     OW19522   1.064   3.209   5.064
 2728SOL    HW119523   0.984   3.186   5.119
 2728SOL    HW219524   1.147   3.183   5.113
 2729SOL     OW19525   1.592   3.491   5.349
 2729SOL    HW119526   1.619   3.525   5.259
 2729SOL    HW219527   1.671   3.453   5.395
 2730SOL     OW19528   1.111   3.057   4.824
 2730SOL    HW119529   1.071   3.101   4.905
 2730SOL    HW219530   1.070   3.094   4.741
 2731SOL     OW19531   1.638   2.961   4.803
 2731SOL    HW119532   1.643   3.042   4.862
 2731SOL    HW219533   1.552   2.963   4.752
 2732SOL     OW19534   0.915   1.951   5.126
 2732SOL    HW119535   0.940   1.931   5.031
 2732SOL    HW219536   0.987   2.007   5.168
 2733SOL     OW19537   0.980   2.978   5.443
 2733SOL    HW119538   0.881   2.984   5.453
 2733SOL    HW219539   1.003   2.898   5.387
 2734SOL     OW19540   0.705   2.912   4.092
 2734SOL    HW119541   0.691   2.919   4.191
 2734SOL    HW219542   0.789   2.861   4.074
 2735SOL     OW19543   0.410   2.675   4.975
 2735SOL    HW119544   0.496   2.687   5.025
 2735SOL    HW219545   0.368   2.588   5.002
 2736SOL     OW19546   1.274   2.248   4.986
 2736SOL    HW119547   1.295   2.322   5.050
 2736SOL    HW219548   1.185   2.265   4.943
 2737SOL     OW19549   0.064   3.426   5.055
 2737SOL    HW119550   0.018   3.508   5.021
 2737SOL    HW219551   0.162   3.445   5.064
 2738SOL     OW19552   0.367   2.962   4.225
 2738SOL    HW119553   0.360   3.045   4.169
 2738SOL    HW219554   0.371   2.882   4.165
 2739SOL     OW19555   0.566   2.399   4.589
 2739SOL    HW119556   0.578   2.465   4.515
 2739SOL    HW219557   0.612   2.433   4.672
 2740SOL     OW19558   1.252   3.210   4.112
 2740SOL    HW119559   1.302   3.287   4.152
 2740SOL    HW219560   1.157   3.212   4.144
 2741SOL     OW19561   1.272   3.307   4.866
 2741SOL    HW119562   1.319   3.320   4.953
 2741SOL    HW219563   1.206   3.233   4.875
 2742SOL     OW19564   1.582   2.501   4.196
 2742SOL    HW119565   1.551   2.562   4.269
 2742SOL    HW219566   1.632   2.553   4.127
 2743SOL     OW19567   0.354   3.372   5.053
 2743SOL    HW119568   0.333   3.328   4.966
 2743SOL    HW219569   0.451   3.398   5.056
 2744SOL     OW19570   0.402   2.613   5.322
 2744SOL    HW119571   0.470   2.668   5.275
 2744SOL    HW219572   0.442   2.525   5.349
 2745SOL     OW19573   1.587   2.641   5.394
 2745SOL    HW119574   1.495   2.679   5.389
 2745SOL    HW219575   1.647   2.688   5.329
 2746SOL     OW19576   1.013   1.967   5.494
 2746SOL    HW119577   1.019   2.052   5.442
 2746SOL    HW219578   1.045   1.891   5.437
 2747SOL     OW19579   0.504   1.912   5.464
 2747SOL    HW119580   0.462   1.855   5.394
 2747SOL    HW219581   0.438   1.981   5.496
 2748SOL     OW19582   0.573   2.732   4.753
 2748SOL    HW119583   0.617   2.821   4.744
 2748SOL    HW219584   0.510   2.732   4.830
 2749SOL     OW19585   1.360   2.724   4.769
 2749SOL    HW119586   1.285   2.724   4.703
 2749SOL    HW219587   1.397   2.632   4.778
 2750SOL     OW19588   1.209   2.387   3.999
 2750SOL    HW119589   1.222   2.303   4.053
 2750SOL    HW219590   1.180   2.461   4.059
 2751SOL     OW19591   0.307   2.075   4.955
 2751SOL    HW119592   0.284   2.112   5.045
 2751SOL    HW219593   0.277   1.980   4.949
 2752SOL     OW19594   0.037   3.172   5.006
 2752SOL    HW119595   0.090   3.123   5.074
 2752SOL    HW219596   0.059   3.270   5.011
 2753SOL     OW19597   0.732   2.496   4.788
 2753SOL    HW119598   0.791   2.470   4.712
 2753SOL    HW219599   0.704   2.592   4.777
 2754SOL     OW19600   1.728   2.797   5.578
 2754SOL    HW119601   1.682   2.790   5.489
 2754SOL    HW219602   1.666   2.841   5.644
 2755SOL     OW19603   0.307   1.925   4.342
 2755SOL    HW119604   0.296   2.019   4.375
 2755SOL    HW219605   0.302   1.862   4.419
 2756SOL     OW19606   1.622   2.229   4.098
 2756SOL    HW119607   1.624   2.153   4.162
 2756SOL    HW219608   1.574   2.306   4.138
 2757SOL     OW19609   1.023   2.628   4.690
 2757SOL    HW119610   1.038   2.649   4.786
 2757SOL    HW219611   0.993   2.533   4.681
 2758SOL     OW19612   0.980   3.435   5.424
 2758SOL    HW119613   0.960   3.479   5.336
 2758SOL    HW219614   1.019   3.344   5.408
 2759SOL     OW19615   1.859   3.380   5.329
 2759SOL    HW119616   1.873   3.407   5.234
 2759SOL    HW219617   1.942   3.402   5.382
 2760SOL     OW19618   0.350   2.760   5.528
 2760SOL    HW119619   0.426   2.804   5.576
 2760SOL    HW219620   0.385   2.713   5.446
 2761SOL     OW19621   1.540   2.136   3.849
 2761SOL    HW119622   1.479   2.061   3.872
 2761SOL    HW219623   1.562   2.188   3.932
 2762SOL     OW19624   1.303   2.700   3.766
 2762SOL    HW119625   1.337   2.607   3.781
 2762SOL    HW219626   1.321   2.727   3.671
 2763SOL     OW19627   1.068   3.195   4.573
 2763SOL    HW119628   1.075   3.111   4.518
 2763SOL    HW219629   1.130   3.264   4.537
 2764SOL     OW19630   0.319   2.672   4.673
 2764SOL    HW119631   0.412   2.708   4.678
 2764SOL    HW219632   0.313   2.587   4.725
 2765SOL     OW19633   0.339   2.371   4.730
 2765SOL    HW119634   0.287   2.288   4.713
 2765SOL    HW219635   0.416   2.376   4.666
 2766SOL     OW19636   1.138   2.242   5.402
 2766SOL    HW119637   1.093   2.305   5.466
 2766SOL    HW219638   1.231   2.273   5.385
 2767SOL     OW19639   1.160   2.069   5.201
 2767SOL    HW119640   1.160   2.133   5.278
 2767SOL    HW219641   1.188   2.117   5.118
 2768SOL     OW19642   0.008   3.188   3.924
 2768SOL    HW119643  -0.085   3.209   3.893
 2768SOL    HW219644   0.018   3.089   3.937
 2769SOL     OW19645   0.088   3.663   4.651
 2769SOL    HW119646   0.046   3.577   4.624
 2769SOL    HW219647   0.182   3.666   4.617
 2770SOL     OW19648   0.504   3.430   4.634
 2770SOL    HW119649   0.570   3.504   4.643
 2770SOL    HW219650   0.548   3.351   4.592
 2771SOL     OW19651   1.002   2.658   4.962
 2771SOL    HW119652   1.043   2.626   5.048
 2771SOL    HW219653   0.906   2.631   4.959
 2772SOL     OW19654   0.040   2.406   4.838
 2772SOL    HW119655   0.125   2.373   4.797
 2772SOL    HW219656   0.053   2.421   4.936
 2773SOL     OW19657   0.189   2.382   5.446
 2773SOL    HW119658   0.248   2.342   5.376
 2773SOL    HW219659   0.131   2.453   5.405
 2774SOL     OW19660   1.369   2.812   5.384
 2774SOL    HW119661   1.408   2.901   5.404
 2774SOL    HW219662   1.379   2.792   5.287
 2775SOL     OW19663   0.815   2.434   4.049
 2775SOL    HW119664   0.822   2.345   4.003
 2775SOL    HW219665   0.721   2.468   4.041
 2776SOL     OW19666   1.657   2.466   4.930
 2776SOL    HW119667   1.619   2.397   4.992
 2776SOL    HW219668   1.739   2.430   4.886
 2777SOL     OW19669   0.252   3.426   5.468
 2777SOL    HW119670   0.222   3.483   5.544
 2777SOL    HW219671   0.245   3.329   5.494
 2778SOL     OW19672   0.671   2.326   4.993
 2778SOL    HW119673   0.637   2.237   4.963
 2778SOL    HW219674   0.697   2.380   4.913
 2779SOL     OW19675   0.930   3.540   5.189
 2779SOL    HW119676   0.906   3.522   5.094
 2779SOL    HW219677   0.960   3.634   5.199
 2780SOL     OW19678   0.473   2.362   3.915
 2780SOL    HW119679   0.534   2.442   3.919
 2780SOL    HW219680   0.378   2.393   3.922
 2781SOL     OW19681   0.159   2.999   5.190
 2781SOL    HW119682   0.181   2.938   5.266
 2781SOL    HW219683   0.169   2.950   5.104
 2782SOL     OW19684   1.347   2.921   4.958
 2782SOL    HW119685   1.371   2.858   4.884
 2782SOL    HW219686   1.257   2.961   4.940
 2783SOL     OW19687   1.302   2.717   4.033
 2783SOL    HW119688   1.216   2.686   4.075
 2783SOL    HW219689   1.298   2.703   3.934
 2784SOL     OW19690   1.759   3.609   4.878
 2784SOL    HW119691   1.820   3.639   4.805
 2784SOL    HW219692   1.721   3.520   4.856
 2785SOL     OW19693   1.252   3.593   4.852
 2785SOL    HW119694   1.336   3.598   4.798
 2785SOL    HW219695   1.229   3.497   4.870
 2786SOL     OW19696   0.083   3.120   4.746
 2786SOL    HW119697   0.078   3.119   4.846
 2786SOL    HW219698   0.000   3.079   4.708
 2787SOL     OW19699   0.688   3.524   5.440
 2787SOL    HW119700   0.632   3.605   5.449
 2787SOL    HW219701   0.740   3.528   5.354
 2788SOL     OW19702   1.726   1.997   4.247
 2788SOL    HW119703   1.799   1.980   4.180
 2788SOL    HW219704   1.695   1.910   4.285
 2789SOL     OW19705   1.388   3.435   4.201
 2789SOL    HW119706   1.455   3.447   4.127
 2789SOL    HW219707   1.348   3.524   4.224
 2790SOL     OW19708   0.130   3.656   5.575
 2790SOL    HW119709   0.089   3.582   5.628
 2790SOL    HW219710   0.194   3.707   5.633
 2791SOL     OW19711   1.280   2.789   4.396
 2791SOL    HW119712   1.340   2.708   4.398
 2791SOL    HW219713   1.320   2.858   4.336
 2792SOL     OW19714   0.830   3.135   5.146
 2792SOL    HW119715   0.825   3.168   5.241
 2792SOL    HW219716   0.744   3.154   5.100
 2793SOL     OW19717   0.672   3.478   3.878
 2793SOL    HW119718   0.681   3.488   3.779
 2793SOL    HW219719   0.632   3.389   3.899
 2794SOL     OW19720   1.650   3.582   5.118
 2794SOL    HW119721   1.703   3.592   5.034
 2794SOL    HW219722   1.623   3.672   5.152
 2795SOL     OW19723   1.841   2.037   4.687
 2795SOL    HW119724   1.880   1.952   4.651
 2795SOL    HW219725   1.743   2.039   4.668
 2796SOL     OW19726   0.263   2.188   4.444
 2796SOL    HW119727   0.184   2.239   4.410
 2796SOL    HW219728   0.254   2.173   4.542
 2797SOL     OW19729   1.194   3.474   3.755
 2797SOL    HW119730   1.200   3.381   3.792
 2797SOL    HW219731   1.135   3.474   3.675
 2798SOL     OW19732   0.822   2.864   5.096
 2798SOL    HW119733   0.862   2.863   5.004
 2798SOL    HW219734   0.832   2.956   5.136
 2799SOL     OW19735   0.916   2.772   4.015
 2799SOL    HW119736   0.979   2.810   3.947
 2799SOL    HW219737   0.956   2.689   4.054
 2800SOL     OW19738   1.504   3.469   3.768
 2800SOL    HW119739   1.412   3.506   3.775
 2800SOL    HW219740   1.542   3.489   3.678
 2801SOL     OW19741   0.372   3.150   5.214
 2801SOL    HW119742   0.359   3.243   5.180
 2801SOL    HW219743   0.288   3.098   5.201
 2802SOL     OW19744   1.614   3.154   5.013
 2802SOL    HW119745   1.674   3.157   5.093
 2802SOL    HW219746   1.539   3.218   5.026
 2803SOL     OW19747   1.039   2.960   4.420
 2803SOL    HW119748   0.969   2.913   4.474
 2803SOL    HW219749   1.098   2.892   4.377
 2804SOL     OW19750   1.014   2.098   4.695
 2804SOL    HW119751   1.006   2.062   4.602
 2804SOL    HW219752   1.012   2.022   4.760
 2805SOL     OW19753   0.590   3.349   4.215
 2805SOL    HW119754   0.632   3.291   4.145
 2805SOL    HW219755   0.546   3.428   4.171
 2806SOL     OW19756   1.709   2.247   5.105
 2806SOL    HW119757   1.782   2.316   5.109
 2806SOL    HW219758   1.737   2.172   5.046
 2807SOL     OW19759   0.255   3.210   4.014
 2807SOL    HW119760   0.159   3.211   3.987
 2807SOL    HW219761   0.267   3.263   4.098
 2808SOL     OW19762   0.105   2.875   5.450
 2808SOL    HW119763   0.028   2.842   5.504
 2808SOL    HW219764   0.190   2.845   5.492
 2809SOL     OW19765   0.672   2.065   5.213
 2809SOL    HW119766   0.762   2.049   5.173
 2809SOL    HW219767   0.680   2.070   5.312
 2810SOL     OW19768   0.075   2.207   3.757
 2810SOL    HW119769  -0.017   2.179   3.728
 2810SOL    HW219770   0.106   2.284   3.701
 2811SOL     OW19771   1.440   2.718   5.122
 2811SOL    HW119772   1.383   2.770   5.059
 2811SOL    HW219773   1.536   2.730   5.098
 2812SOL     OW19774   0.072   2.028   4.042
 2812SOL    HW119775   0.055   2.111   3.988
 2812SOL    HW219776   0.162   1.991   4.020
 2813SOL     OW19777   1.183   3.197   3.843
 2813SOL    HW119778   1.084   3.186   3.845
 2813SOL    HW219779   1.217   3.212   3.936
 2814SOL     OW19780   0.613   2.704   5.155
 2814SOL    HW119781   0.669   2.785   5.138
 2814SOL    HW219782   0.672   2.624   5.158
 2815SOL     OW19783   1.493   3.629   4.683
 2815SOL    HW119784   1.526   3.693   4.614
 2815SOL    HW219785   1.559   3.623   4.758
 2816SOL     OW19786   0.716   2.427   5.432
 2816SOL    HW119787   0.735   2.492   5.506
 2816SOL    HW219788   0.776   2.347   5.441
 2817SOL     OW19789   1.450   3.082   5.357
 2817SOL    HW119790   1.441   3.072   5.456
 2817SOL    HW219791   1.546   3.075   5.331
 2818SOL     OW19792   0.390   3.603   5.284
 2818SOL    HW119793   0.299   3.644   5.282
 2818SOL    HW219794   0.383   3.509   5.316
 2819SOL     OW19795   1.674   2.745   4.978
 2819SOL    HW119796   1.647   2.656   4.941
 2819SOL    HW219797   1.675   2.813   4.905
 2820SOL     OW19798   1.225   2.187   4.173
 2820SOL    HW119799   1.290   2.113   4.162
 2820SOL    HW219800   1.245   2.237   4.257
 2821SOL     OW19801   0.594   2.607   4.376
 2821SOL    HW119802   0.644   2.692   4.357
 2821SOL    HW219803   0.506   2.609   4.328
 2822SOL     OW19804   1.777   2.204   5.366
 2822SOL    HW119805   1.760   2.235   5.272
 2822SOL    HW219806   1.693   2.167   5.404
 2823SOL     OW19807   1.730   2.796   5.241
 2823SOL    HW119808   1.768   2.887   5.256
 2823SOL    HW219809   1.722   2.779   5.142
 2824SOL     OW19810   0.859   3.236   3.740
 2824SOL    HW119811   0.813   3.251   3.828
 2824SOL    HW219812   0.903   3.321   3.710
 2825SOL     OW19813   0.661   3.652   4.677
 2825SOL    HW119814   0.615   3.740   4.664
 2825SOL    HW219815   0.760   3.664   4.670
 2826SOL     OW19816   0.859   2.818   4.585
 2826SOL    HW119817   0.913   2.749   4.633
 2826SOL    HW219818   0.827   2.887   4.651
 2827SOL     OW19819   1.083   2.846   3.811
 2827SOL    HW119820   1.060   2.899   3.729
 2827SOL    HW219821   1.164   2.790   3.792
 2828SOL     OW19822   1.861   3.431   4.575
 2828SOL    HW119823   1.790   3.419   4.505
 2828SOL    HW219824   1.862   3.352   4.635
 2829SOL     OW19825   0.221   3.176   5.568
 2829SOL    HW119826   0.156   3.103   5.547
 2829SOL    HW219827   0.225   3.190   5.666
 2830SOL     OW19828   0.079   3.102   4.377
 2830SOL    HW119829   0.078   3.055   4.465
 2830SOL    HW219830   0.161   3.074   4.326
 2831SOL     OW19831   0.672   3.253   5.348
 2831SOL    HW119832   0.594   3.203   5.386
 2831SOL    HW219833   0.669   3.348   5.379
 2832SOL     OW19834   1.824   2.054   4.951
 2832SOL    HW119835   1.820   1.964   4.995
 2832SOL    HW219836   1.827   2.043   4.852
 2833SOL     OW19837   0.428   2.286   4.244
 2833SOL    HW119838   0.458   2.214   4.182
 2833SOL    HW219839   0.389   2.246   4.327
 2834SOL     OW19840   1.705   3.349   4.828
 2834SOL    HW119841   1.612   3.324   4.801
 2834SOL    HW219842   1.731   3.299   4.910
 2835SOL     OW19843   0.317   2.409   5.004
 2835SOL    HW119844   0.355   2.350   5.076
 2835SOL    HW219845   0.357   2.383   4.916
 2836SOL     OW19846   0.812   3.448   4.411
 2836SOL    HW119847   0.844   3.458   4.317
 2836SOL    HW219848   0.733   3.386   4.413
 2837SOL     OW19849   1.424   2.076   4.836
 2837SOL    HW119850   1.476   2.011   4.891
 2837SOL    HW219851   1.375   2.139   4.897
 2838SOL     OW19852   1.001   1.896   4.878
 2838SOL    HW119853   0.938   1.824   4.847
 2838SOL    HW219854   1.094   1.860   4.878
 2839SOL     OW19855   0.770   3.192   4.025
 2839SOL    HW119856   0.724   3.105   4.042
 2839SOL    HW219857   0.861   3.189   4.066
 2840SOL     OW19858   0.618   3.429   5.008
 2840SOL    HW119859   0.613   3.511   5.065
 2840SOL    HW219860   0.707   3.426   4.963
 2841SOL     OW19861   1.352   1.914   3.892
 2841SOL    HW119862   1.387   1.873   3.808
 2841SOL    HW219863   1.262   1.876   3.912
 2842SOL     OW19864   1.300   2.315   4.415
 2842SOL    HW119865   1.241   2.395   4.419
 2842SOL    HW219866   1.315   2.280   4.508
 2843SOL     OW19867   1.593   2.083   4.606
 2843SOL    HW119868   1.509   2.082   4.660
 2843SOL    HW219869   1.595   2.166   4.550
 2844SOL     OW19870   0.039   2.939   4.024
 2844SOL    HW119871   0.138   2.928   4.015
 2844SOL    HW219872  -0.001   2.853   4.056
 2845SOL     OW19873   0.875   3.508   4.061
 2845SOL    HW119874   0.798   3.473   4.007
 2845SOL    HW219875   0.843   3.579   4.123
 2846SOL     OW19876   0.230   2.490   5.699
 2846SOL    HW119877   0.137   2.488   5.736
 2846SOL    HW219878   0.231   2.451   5.607
 2847SOL     OW19879   0.225   2.137   6.582
 2847SOL    HW119880   0.260   2.120   6.674
 2847SOL    HW219881   0.137   2.092   6.570
 2848SOL     OW19882   0.019   2.230   6.233
 2848SOL    HW119883  -0.063   2.273   6.272
 2848SOL    HW219884  -0.009   2.157   6.170
 2849SOL     OW19885   0.569   3.137   6.751
 2849SOL    HW119886   0.476   3.130   6.714
 2849SOL    HW219887   0.580   3.226   6.795
 2850SOL     OW19888   1.555   3.373   6.289
 2850SOL    HW119889   1.498   3.357   6.370
 2850SOL    HW219890   1.496   3.383   6.209
 2851SOL     OW19891   1.135   2.565   6.303
 2851SOL    HW119892   1.192   2.643   6.278
 2851SOL    HW219893   1.075   2.591   6.379
 2852SOL     OW19894   1.755   2.469   5.817
 2852SOL    HW119895   1.743   2.456   5.718
 2852SOL    HW219896   1.725   2.388   5.866
 2853SOL     OW19897   0.768   3.006   6.609
 2853SOL    HW119898   0.690   3.023   6.669
 2853SOL    HW219899   0.802   3.093   6.573
 2854SOL     OW19900   0.850   2.660   7.409
 2854SOL    HW119901   0.846   2.736   7.474
 2854SOL    HW219902   0.872   2.696   7.318
 2855SOL     OW19903   0.685   2.874   6.251
 2855SOL    HW119904   0.754   2.858   6.321
 2855SOL    HW219905   0.612   2.931   6.289
 2856SOL     OW19906   0.686   3.023   7.389
 2856SOL    HW119907   0.746   3.102   7.403
 2856SOL    HW219908   0.600   3.054   7.348
 2857SOL     OW19909   0.335   3.297   6.647
 2857SOL    HW119910   0.257   3.266   6.594
 2857SOL    HW219911   0.393   3.355   6.590
 2858SOL     OW19912   1.460   3.367   6.925
 2858SOL    HW119913   1.484   3.461   6.951
 2858SOL    HW219914   1.444   3.313   7.007
 2859SOL     OW19915   0.438   2.254   7.085
 2859SOL    HW119916   0.520   2.198   7.094
 2859SOL    HW219917   0.357   2.196   7.089
 2860SOL     OW19918   1.603   2.309   6.323
 2860SOL    HW119919   1.529   2.355   6.273
 2860SOL    HW219920   1.654   2.377   6.376
 2861SOL     OW19921   0.231   3.575   6.069
 2861SOL    HW119922   0.265   3.652   6.123
 2861SOL    HW219923   0.275   3.575   5.979
 2862SOL     OW19924   1.127   3.203   7.276
 2862SOL    HW119925   1.174   3.203   7.364
 2862SOL    HW219926   1.079   3.116   7.265
 2863SOL     OW19927   0.230   3.296   6.124
 2863SOL    HW119928   0.204   3.392   6.124
 2863SOL    HW219929   0.159   3.242   6.169
 2864SOL     OW19930   0.240   2.953   6.472
 2864SOL    HW119931   0.254   2.869   6.524
 2864SOL    HW219932   0.185   3.017   6.527
 2865SOL     OW19933   0.620   3.648   7.025
 2865SOL    HW119934   0.528   3.631   7.060
 2865SOL    HW219935   0.648   3.740   7.051
 2866SOL     OW19936   0.606   2.826   5.709
 2866SOL    HW119937   0.613   2.910   5.655
 2866SOL    HW219938   0.652   2.839   5.797
 2867SOL     OW19939   1.594   1.976   7.066
 2867SOL    HW119940   1.576   2.043   6.994
 2867SOL    HW219941   1.591   2.022   7.155
 2868SOL     OW19942   0.122   2.505   6.149
 2868SOL    HW119943   0.077   2.417   6.166
 2868SOL    HW219944   0.121   2.559   6.233
 2869SOL     OW19945   1.842   3.629   5.945
 2869SOL    HW119946   1.896   3.600   6.025
 2869SOL    HW219947   1.872   3.719   5.916
 2870SOL     OW19948   1.689   2.784   6.198
 2870SOL    HW119949   1.784   2.755   6.206
 2870SOL    HW219950   1.681   2.849   6.123
 2871SOL     OW19951   1.641   2.970   6.018
 2871SOL    HW119952   1.727   2.972   5.966
 2871SOL    HW219953   1.655   3.017   6.106
 2872SOL     OW19954   0.113   2.599   7.183
 2872SOL    HW119955   0.201   2.586   7.228
 2872SOL    HW219956   0.100   2.696   7.161
 2873SOL     OW19957   0.613   3.227   6.312
 2873SOL    HW119958   0.564   3.140   6.321
 2873SOL    HW219959   0.590   3.270   6.225
 2874SOL     OW19960   1.293   3.090   7.009
 2874SOL    HW119961   1.330   3.017   6.951
 2874SOL    HW219962   1.345   3.095   7.094
 2875SOL     OW19963   0.809   1.866   6.088
 2875SOL    HW119964   0.849   1.957   6.079
 2875SOL    HW219965   0.709   1.874   6.094
 2876SOL     OW19966   0.197   2.838   6.850
 2876SOL    HW119967   0.286   2.793   6.836
 2876SOL    HW219968   0.124   2.773   6.831
 2877SOL     OW19969   1.525   2.861   5.776
 2877SOL    HW119970   1.462   2.785   5.789
 2877SOL    HW219971   1.573   2.879   5.862
 2878SOL     OW19972   1.187   3.654   7.202
 2878SOL    HW119973   1.211   3.714   7.126
 2878SOL    HW219974   1.194   3.559   7.172
 2879SOL     OW19975   0.317   2.113   7.387
 2879SOL    HW119976   0.388   2.184   7.393
 2879SOL    HW219977   0.229   2.152   7.415
 2880SOL     OW19978   1.466   3.279   6.539
 2880SOL    HW119979   1.407   3.285   6.619
 2880SOL    HW219980   1.451   3.191   6.493
 2881SOL     OW19981   1.667   3.576   6.158
 2881SOL    HW119982   1.626   3.553   6.070
 2881SOL    HW219983   1.649   3.502   6.223
 2882SOL     OW19984   0.598   2.591   5.856
 2882SOL    HW119985   0.622   2.660   5.788
 2882SOL    HW219986   0.520   2.624   5.910
 2883SOL     OW19987   1.281   2.207   6.530
 2883SOL    HW119988   1.195   2.157   6.517
 2883SOL    HW219989   1.343   2.153   6.586
 2884SOL     OW19990   1.576   3.524   5.893
 2884SOL    HW119991   1.665   3.570   5.896
 2884SOL    HW219992   1.555   3.500   5.798
 2885SOL     OW19993   0.807   2.467   7.051
 2885SOL    HW119994   0.760   2.464   7.140
 2885SOL    HW219995   0.756   2.412   6.985
 2886SOL     OW19996   1.394   2.331   7.260
 2886SOL    HW119997   1.374   2.374   7.348
 2886SOL    HW219998   1.472   2.269   7.269
 2887SOL     OW19999   0.973   2.752   7.158
 2887SOL    HW120000   1.019   2.668   7.129
 2887SOL    HW220001   0.917   2.786   7.083
 2888SOL     OW20002   0.991   2.272   6.828
 2888SOL    HW120003   0.914   2.306   6.882
 2888SOL    HW220004   0.957   2.221   6.749
 2889SOL     OW20005   1.041   2.563   6.015
 2889SOL    HW120006   1.067   2.559   6.111
 2889SOL    HW220007   0.956   2.512   6.001
 2890SOL     OW20008   0.130   3.683   7.157
 2890SOL    HW120009   0.120   3.668   7.256
 2890SOL    HW220010   0.044   3.719   7.121
 2891SOL     OW20011   0.865   2.210   5.781
 2891SOL    HW120012   0.924   2.273   5.732
 2891SOL    HW220013   0.884   2.116   5.752
 2892SOL     OW20014   1.719   2.447   7.417
 2892SOL    HW120015   1.693   2.536   7.381
 2892SOL    HW220016   1.717   2.379   7.344
 2893SOL     OW20017   1.362   3.006   6.131
 2893SOL    HW120018   1.445   2.977   6.083
 2893SOL    HW220019   1.313   3.073   6.075
 2894SOL     OW20020   0.550   2.058   6.471
 2894SOL    HW120021   0.545   2.053   6.571
 2894SOL    HW220022   0.552   2.154   6.442
 2895SOL     OW20023   1.008   3.318   6.063
 2895SOL    HW120024   0.962   3.390   6.011
 2895SOL    HW220025   1.004   3.338   6.161
 2896SOL     OW20026   0.351   3.663   6.439
 2896SOL    HW120027   0.401   3.577   6.445
 2896SOL    HW220028   0.416   3.740   6.436
 2897SOL     OW20029   1.795   2.928   6.459
 2897SOL    HW120030   1.733   2.913   6.383
 2897SOL    HW220031   1.743   2.939   6.544
 2898SOL     OW20032   1.227   3.412   7.092
 2898SOL    HW120033   1.233   3.335   7.156
 2898SOL    HW220034   1.175   3.386   7.012
 2899SOL     OW20035   0.321   2.805   5.828
 2899SOL    HW120036   0.403   2.844   5.786
 2899SOL    HW220037   0.294   2.723   5.779
 2900SOL     OW20038   1.458   2.597   6.314
 2900SOL    HW120039   1.453   2.532   6.389
 2900SOL    HW220040   1.538   2.656   6.327
 2901SOL     OW20041   0.461   3.128   7.313
 2901SOL    HW120042   0.411   3.129   7.227
 2901SOL    HW220043   0.398   3.110   7.389
 2902SOL     OW20044   1.111   3.638   5.823
 2902SOL    HW120045   1.051   3.576   5.873
 2902SOL    HW220046   1.142   3.594   5.738
 2903SOL     OW20047   0.202   2.147   7.084
 2903SOL    HW120048   0.122   2.207   7.071
 2903SOL    HW220049   0.192   2.098   7.170
 2904SOL     OW20050   1.632   3.239   5.667
 2904SOL    HW120051   1.600   3.333   5.657
 2904SOL    HW220052   1.556   3.176   5.655
 2905SOL     OW20053   0.464   3.605   5.909
 2905SOL    HW120054   0.497   3.644   5.995
 2905SOL    HW220055   0.540   3.598   5.844
 2906SOL     OW20056   1.400   1.969   6.012
 2906SOL    HW120057   1.376   1.932   5.922
 2906SOL    HW220058   1.499   1.985   6.016
 2907SOL     OW20059   0.249   3.647   6.827
 2907SOL    HW120060   0.306   3.582   6.877
 2907SOL    HW220061   0.233   3.614   6.734
 2908SOL     OW20062   0.940   3.560   6.490
 2908SOL    HW120063   1.020   3.503   6.511
 2908SOL    HW220064   0.891   3.520   6.413
 2909SOL     OW20065   0.382   2.562   6.066
 2909SOL    HW120066   0.427   2.472   6.063
 2909SOL    HW220067   0.288   2.551   6.099
 2910SOL     OW20068   0.614   1.984   5.703
 2910SOL    HW120069   0.712   1.962   5.710
 2910SOL    HW220070   0.583   1.967   5.610
 2911SOL     OW20071   0.781   2.126   7.335
 2911SOL    HW120072   0.848   2.065   7.378
 2911SOL    HW220073   0.708   2.145   7.400
 2912SOL     OW20074   0.888   3.376   6.781
 2912SOL    HW120075   0.865   3.351   6.687
 2912SOL    HW220076   0.949   3.307   6.820
 2913SOL     OW20077   1.351   2.452   7.019
 2913SOL    HW120078   1.379   2.409   7.104
 2913SOL    HW220079   1.376   2.548   7.020
 2914SOL     OW20080   0.803   3.264   6.510
 2914SOL    HW120081   0.893   3.278   6.468
 2914SOL    HW220082   0.732   3.266   6.439
 2915SOL     OW20083   0.922   2.365   6.485
 2915SOL    HW120084   0.897   2.356   6.389
 2915SOL    HW220085   0.970   2.283   6.516
 2916SOL     OW20086   0.539   1.926   6.098
 2916SOL    HW120087   0.458   1.927   6.156
 2916SOL    HW220088   0.542   2.009   6.043
 2917SOL     OW20089   1.434   3.050   5.627
 2917SOL    HW120090   1.466   2.974   5.684
 2917SOL    HW220091   1.342   3.077   5.657
 2918SOL     OW20092   0.297   1.897   5.757
 2918SOL    HW120093   0.346   1.981   5.736
 2918SOL    HW220094   0.359   1.832   5.802
 2919SOL     OW20095   0.935   2.098   6.066
 2919SOL    HW120096   0.887   2.139   5.988
 2919SOL    HW220097   1.034   2.096   6.047
 2920SOL     OW20098   1.076   2.545   7.050
 2920SOL    HW120099   0.996   2.484   7.053
 2920SOL    HW220100   1.157   2.492   7.026
 2921SOL     OW20101   1.227   3.432   6.379
 2921SOL    HW120102   1.248   3.506   6.314
 2921SOL    HW220103   1.295   3.432   6.452
 2922SOL     OW20104   0.459   3.014   6.327
 2922SOL    HW120105   0.388   2.987   6.392
 2922SOL    HW220106   0.433   2.986   6.234
 2923SOL     OW20107   1.271   3.659   6.177
 2923SOL    HW120108   1.315   3.723   6.113
 2923SOL    HW220109   1.221   3.711   6.247
 2924SOL     OW20110   1.032   2.411   5.602
 2924SOL    HW120111   0.991   2.493   5.563
 2924SOL    HW220112   1.096   2.437   5.675
 2925SOL     OW20113   0.078   2.418   6.972
 2925SOL    HW120114   0.170   2.417   6.931
 2925SOL    HW220115   0.072   2.492   7.039
 2926SOL     OW20116   0.561   2.084   6.733
 2926SOL    HW120117   0.599   2.000   6.770
 2926SOL    HW220118   0.473   2.103   6.777
 2927SOL     OW20119   0.866   2.316   6.228
 2927SOL    HW120120   0.834   2.388   6.166
 2927SOL    HW220121   0.890   2.235   6.175
 2928SOL     OW20122   1.017   1.901   6.339
 2928SOL    HW120123   0.945   1.906   6.270
 2928SOL    HW220124   0.993   1.832   6.408
 2929SOL     OW20125   1.429   3.035   6.453
 2929SOL    HW120126   1.374   2.951   6.446
 2929SOL    HW220127   1.455   3.064   6.361
 2930SOL     OW20128   1.466   2.452   6.578
 2930SOL    HW120129   1.436   2.357   6.585
 2930SOL    HW220130   1.539   2.468   6.644
 2931SOL     OW20131   1.857   2.695   5.963
 2931SOL    HW120132   1.899   2.631   6.027
 2931SOL    HW220133   1.819   2.644   5.885
 2932SOL     OW20134   0.488   3.247   5.760
 2932SOL    HW120135   0.401   3.232   5.807
 2932SOL    HW220136   0.471   3.273   5.665
 2933SOL     OW20137   1.664   3.142   6.243
 2933SOL    HW120138   1.763   3.150   6.257
 2933SOL    HW220139   1.619   3.226   6.274
 2934SOL     OW20140   1.390   2.437   5.664
 2934SOL    HW120141   1.336   2.416   5.745
 2934SOL    HW220142   1.481   2.396   5.673
 2935SOL     OW20143   0.527   2.118   5.914
 2935SOL    HW120144   0.554   2.059   5.839
 2935SOL    HW220145   0.527   2.213   5.883
 2936SOL     OW20146   1.754   3.085   7.174
 2936SOL    HW120147   1.845   3.046   7.161
 2936SOL    HW220148   1.762   3.181   7.198
 2937SOL     OW20149   1.064   3.209   6.926
 2937SOL    HW120150   0.984   3.186   6.981
 2937SOL    HW220151   1.147   3.183   6.975
 2938SOL     OW20152   1.592   3.491   7.211
 2938SOL    HW120153   1.619   3.525   7.121
 2938SOL    HW220154   1.671   3.453   7.257
 2939SOL     OW20155   1.111   3.057   6.686
 2939SOL    HW120156   1.071   3.101   6.767
 2939SOL    HW220157   1.070   3.094   6.603
 2940SOL     OW20158   1.638   2.961   6.665
 2940SOL    HW120159   1.643   3.042   6.724
 2940SOL    HW220160   1.552   2.963   6.614
 2941SOL     OW20161   0.915   1.951   6.988
 2941SOL    HW120162   0.940   1.931   6.893
 2941SOL    HW220163   0.987   2.007   7.030
 2942SOL     OW20164   0.980   2.978   7.305
 2942SOL    HW120165   0.881   2.984   7.315
 2942SOL    HW220166   1.003   2.898   7.249
 2943SOL     OW20167   0.705   2.912   5.954
 2943SOL    HW120168   0.691   2.919   6.053
 2943SOL    HW220169   0.789   2.861   5.936
 2944SOL     OW20170   0.410   2.675   6.837
 2944SOL    HW120171   0.496   2.687   6.887
 2944SOL    HW220172   0.368   2.588   6.864
 2945SOL     OW20173   1.274   2.248   6.848
 2945SOL    HW120174   1.295   2.322   6.912
 2945SOL    HW220175   1.185   2.265   6.805
 2946SOL     OW20176   0.064   3.426   6.917
 2946SOL    HW120177   0.018   3.508   6.883
 2946SOL    HW220178   0.162   3.445   6.926
 2947SOL     OW20179   0.367   2.962   6.087
 2947SOL    HW120180   0.360   3.045   6.031
 2947SOL    HW220181   0.371   2.882   6.027
 2948SOL     OW20182   0.566   2.399   6.451
 2948SOL    HW120183   0.578   2.465   6.377
 2948SOL    HW220184   0.612   2.433   6.534
 2949SOL     OW20185   1.252   3.210   5.974
 2949SOL    HW120186   1.302   3.287   6.014
 2949SOL    HW220187   1.157   3.212   6.006
 2950SOL     OW20188   1.272   3.307   6.728
 2950SOL    HW120189   1.319   3.320   6.815
 2950SOL    HW220190   1.206   3.233   6.737
 2951SOL     OW20191   1.582   2.501   6.058
 2951SOL    HW120192   1.551   2.562   6.131
 2951SOL    HW220193   1.632   2.553   5.989
 2952SOL     OW20194   0.354   3.372   6.915
 2952SOL    HW120195   0.333   3.328   6.828
 2952SOL    HW220196   0.451   3.398   6.918
 2953SOL     OW20197   0.402   2.613   7.184
 2953SOL    HW120198   0.470   2.668   7.137
 2953SOL    HW220199   0.442   2.525   7.211
 2954SOL     OW20200   1.587   2.641   7.256
 2954SOL    HW120201   1.495   2.679   7.251
 2954SOL    HW220202   1.647   2.688   7.191
 2955SOL     OW20203   1.013   1.967   7.356
 2955SOL    HW120204   1.019   2.052   7.304
 2955SOL    HW220205   1.045   1.891   7.299
 2956SOL     OW20206   0.504   1.912   7.326
 2956SOL    HW120207   0.462   1.855   7.256
 2956SOL    HW220208   0.438   1.981   7.358
 2957SOL     OW20209   0.573   2.732   6.615
 2957SOL    HW120210   0.617   2.821   6.606
 2957SOL    HW220211   0.510   2.732   6.692
 2958SOL     OW20212   1.360   2.724   6.631
 2958SOL    HW120213   1.285   2.724   6.565
 2958SOL    HW220214   1.397   2.632   6.640
 2959SOL     OW20215   1.209   2.387   5.861
 2959SOL    HW120216   1.222   2.303   5.915
 2959SOL    HW220217   1.180   2.461   5.921
 2960SOL     OW20218   0.307   2.075   6.817
 2960SOL    HW120219   0.284   2.112   6.907
 2960SOL    HW220220   0.277   1.980   6.811
 2961SOL     OW20221   0.037   3.172   6.868
 2961SOL    HW120222   0.090   3.123   6.936
 2961SOL    HW220223   0.059   3.270   6.873
 2962SOL     OW20224   0.732   2.496   6.650
 2962SOL    HW120225   0.791   2.470   6.574
 2962SOL    HW220226   0.704   2.592   6.639
 2963SOL     OW20227   1.728   2.797   7.440
 2963SOL    HW120228   1.682   2.790   7.351
 2963SOL    HW220229   1.666   2.841   7.506
 2964SOL     OW20230   0.307   1.925   6.204
 2964SOL    HW120231   0.296   2.019   6.237
 2964SOL    HW220232   0.302   1.862   6.281
 2965SOL     OW20233   1.622   2.229   5.960
 2965SOL    HW120234   1.624   2.153   6.024
 2965SOL    HW220235   1.574   2.306   6.000
 2966SOL     OW20236   1.023   2.628   6.552
 2966SOL    HW120237   1.038   2.649   6.648
 2966SOL    HW220238   0.993   2.533   6.543
 2967SOL     OW20239   0.980   3.435   7.286
 2967SOL    HW120240   0.960   3.479   7.198
 2967SOL    HW220241   1.019   3.344   7.270
 2968SOL     OW20242   1.859   3.380   7.191
 2968SOL    HW120243   1.873   3.407   7.096
 2968SOL    HW220244   1.942   3.402   7.244
 2969SOL     OW20245   0.350   2.760   7.390
 2969SOL    HW120246   0.426   2.804   7.438
 2969SOL    HW220247   0.385   2.713   7.308
 2970SOL     OW20248   1.540   2.136   5.711
 2970SOL    HW120249   1.479   2.061   5.734
 2970SOL    HW220250   1.562   2.188   5.794
 2971SOL     OW20251   1.303   2.700   5.628
 2971SOL    HW120252   1.337   2.607   5.643
 2971SOL    HW220253   1.321   2.727   5.533
 2972SOL     OW20254   1.068   3.195   6.435
 2972SOL    HW120255   1.075   3.111   6.380
 2972SOL    HW220256   1.130   3.264   6.399
 2973SOL     OW20257   0.319   2.672   6.535
 2973SOL    HW120258   0.412   2.708   6.540
 2973SOL    HW220259   0.313   2.587   6.587
 2974SOL     OW20260   0.339   2.371   6.592
 2974SOL    HW120261   0.287   2.288   6.575
 2974SOL    HW220262   0.416   2.376   6.528
 2975SOL     OW20263   1.138   2.242   7.264
 2975SOL    HW120264   1.093   2.305   7.328
 2975SOL    HW220265   1.231   2.273   7.247
 2976SOL     OW20266   1.160   2.069   7.063
 2976SOL    HW120267   1.160   2.133   7.140
 2976SOL    HW220268   1.188   2.117   6.980
 2977SOL     OW20269   0.008   3.188   5.786
 2977SOL    HW120270  -0.085   3.209   5.755
 2977SOL    HW220271   0.018   3.089   5.799
 2978SOL     OW20272   0.088   3.663   6.513
 2978SOL    HW120273   0.046   3.577   6.486
 2978SOL    HW220274   0.182   3.666   6.479
 2979SOL     OW20275   0.504   3.430   6.496
 2979SOL    HW120276   0.570   3.504   6.505
 2979SOL    HW220277   0.548   3.351   6.454
 2980SOL     OW20278   1.002   2.658   6.824
 2980SOL    HW120279   1.043   2.626   6.910
 2980SOL    HW220280   0.906   2.631   6.821
 2981SOL     OW20281   0.040   2.406   6.700
 2981SOL    HW120282   0.125   2.373   6.659
 2981SOL    HW220283   0.053   2.421   6.798
 2982SOL     OW20284   0.189   2.382   7.308
 2982SOL    HW120285   0.248   2.342   7.238
 2982SOL    HW220286   0.131   2.453   7.267
 2983SOL     OW20287   1.369   2.812   7.246
 2983SOL    HW120288   1.408   2.901   7.266
 2983SOL    HW220289   1.379   2.792   7.149
 2984SOL     OW20290   0.815   2.434   5.911
 2984SOL    HW120291   0.822   2.345   5.865
 2984SOL    HW220292   0.721   2.468   5.903
 2985SOL     OW20293   1.657   2.466   6.792
 2985SOL    HW120294   1.619   2.397   6.854
 2985SOL    HW220295   1.739   2.430   6.748
 2986SOL     OW20296   0.252   3.426   7.330
 2986SOL    HW120297   0.222   3.483   7.406
 2986SOL    HW220298   0.245   3.329   7.356
 2987SOL     OW20299   0.671   2.326   6.855
 2987SOL    HW120300   0.637   2.237   6.825
 2987SOL    HW220301   0.697   2.380   6.775
 2988SOL     OW20302   0.930   3.540   7.051
 2988SOL    HW120303   0.906   3.522   6.956
 2988SOL    HW220304   0.960   3.634   7.061
 2989SOL     OW20305   0.473   2.362   5.777
 2989SOL    HW120306   0.534   2.442   5.781
 2989SOL    HW220307   0.378   2.393   5.784
 2990SOL     OW20308   0.159   2.999   7.052
 2990SOL    HW120309   0.181   2.938   7.128
 2990SOL    HW220310   0.169   2.950   6.966
 2991SOL     OW20311   1.347   2.921   6.820
 2991SOL    HW120312   1.371   2.858   6.746
 2991SOL    HW220313   1.257   2.961   6.802
 2992SOL     OW20314   1.302   2.717   5.895
 2992SOL    HW120315   1.216   2.686   5.937
 2992SOL    HW220316   1.298   2.703   5.796
 2993SOL     OW20317   1.759   3.609   6.740
 2993SOL    HW120318   1.820   3.639   6.667
 2993SOL    HW220319   1.721   3.520   6.718
 2994SOL     OW20320   1.252   3.593   6.714
 2994SOL    HW120321   1.336   3.598   6.660
 2994SOL    HW220322   1.229   3.497   6.732
 2995SOL     OW20323   0.083   3.120   6.608
 2995SOL    HW120324   0.078   3.119   6.708
 2995SOL    HW220325   0.000   3.079   6.570
 2996SOL     OW20326   0.688   3.524   7.302
 2996SOL    HW120327   0.632   3.605   7.311
 2996SOL    HW220328   0.740   3.528   7.216
 2997SOL     OW20329   1.726   1.997   6.109
 2997SOL    HW120330   1.799   1.980   6.042
 2997SOL    HW220331   1.695   1.910   6.147
 2998SOL     OW20332   1.388   3.435   6.063
 2998SOL    HW120333   1.455   3.447   5.989
 2998SOL    HW220334   1.348   3.524   6.086
 2999SOL     OW20335   0.130   3.656   7.437
 2999SOL    HW120336   0.089   3.582   7.490
 2999SOL    HW220337   0.194   3.707   7.495
 3000SOL     OW20338   1.280   2.789   6.258
 3000SOL    HW120339   1.340   2.708   6.260
 3000SOL    HW220340   1.320   2.858   6.198
 3001SOL     OW20341   0.830   3.135   7.008
 3001SOL    HW120342   0.825   3.168   7.103
 3001SOL    HW220343   0.744   3.154   6.962
 3002SOL     OW20344   0.672   3.478   5.740
 3002SOL    HW120345   0.681   3.488   5.641
 3002SOL    HW220346   0.632   3.389   5.761
 3003SOL     OW20347   1.650   3.582   6.980
 3003SOL    HW120348   1.703   3.592   6.896
 3003SOL    HW220349   1.623   3.672   7.014
 3004SOL     OW20350   1.841   2.037   6.549
 3004SOL    HW120351   1.880   1.952   6.513
 3004SOL    HW220352   1.743   2.039   6.530
 3005SOL     OW20353   0.263   2.188   6.306
 3005SOL    HW120354   0.184   2.239   6.272
 3005SOL    HW220355   0.254   2.173   6.404
 3006SOL     OW20356   1.194   3.474   5.617
 3006SOL    HW120357   1.200   3.381   5.654
 3006SOL    HW220358   1.135   3.474   5.537
 3007SOL     OW20359   0.822   2.864   6.958
 3007SOL    HW120360   0.862   2.863   6.866
 3007SOL    HW220361   0.832   2.956   6.998
 3008SOL     OW20362   0.916   2.772   5.877
 3008SOL    HW120363   0.979   2.810   5.809
 3008SOL    HW220364   0.956   2.689   5.916
 3009SOL     OW20365   1.504   3.469   5.630
 3009SOL    HW120366   1.412   3.506   5.637
 3009SOL    HW220367   1.542   3.489   5.540
 3010SOL     OW20368   0.372   3.150   7.076
 3010SOL    HW120369   0.359   3.243   7.042
 3010SOL    HW220370   0.288   3.098   7.063
 3011SOL     OW20371   1.614   3.154   6.875
 3011SOL    HW120372   1.674   3.157   6.955
 3011SOL    HW220373   1.539   3.218   6.888
 3012SOL     OW20374   1.039   2.960   6.282
 3012SOL    HW120375   0.969   2.913   6.336
 3012SOL    HW220376   1.098   2.892   6.239
 3013SOL     OW20377   1.014   2.098   6.557
 3013SOL    HW120378   1.006   2.062   6.464
 3013SOL    HW220379   1.012   2.022   6.622
 3014SOL     OW20380   0.590   3.349   6.077
 3014SOL    HW120381   0.632   3.291   6.007
 3014SOL    HW220382   0.546   3.428   6.033
 3015SOL     OW20383   1.709   2.247   6.967
 3015SOL    HW120384   1.782   2.316   6.971
 3015SOL    HW220385   1.737   2.172   6.908
 3016SOL     OW20386   0.255   3.210   5.876
 3016SOL    HW120387   0.159   3.211   5.849
 3016SOL    HW220388   0.267   3.263   5.960
 3017SOL     OW20389   0.105   2.875   7.312
 3017SOL    HW120390   0.028   2.842   7.366
 3017SOL    HW220391   0.190   2.845   7.354
 3018SOL     OW20392   0.672   2.065   7.075
 3018SOL    HW120393   0.762   2.049   7.035
 3018SOL    HW220394   0.680   2.070   7.174
 3019SOL     OW20395   0.075   2.207   5.619
 3019SOL    HW120396  -0.017   2.179   5.590
 3019SOL    HW220397   0.106   2.284   5.563
 3020SOL     OW20398   1.440   2.718   6.984
 3020SOL    HW120399   1.383   2.770   6.921
 3020SOL    HW220400   1.536   2.730   6.960
 3021SOL     OW20401   0.072   2.028   5.904
 3021SOL    HW120402   0.055   2.111   5.850
 3021SOL    HW220403   0.162   1.991   5.882
 3022SOL     OW20404   1.183   3.197   5.705
 3022SOL    HW120405   1.084   3.186   5.707
 3022SOL    HW220406   1.217   3.212   5.798
 3023SOL     OW20407   0.613   2.704   7.017
 3023SOL    HW120408   0.669   2.785   7.000
 3023SOL    HW220409   0.672   2.624   7.020
 3024SOL     OW20410   1.493   3.629   6.545
 3024SOL    HW120411   1.526   3.693   6.476
 3024SOL    HW220412   1.559   3.623   6.620
 3025SOL     OW20413   0.716   2.427   7.294
 3025SOL    HW120414   0.735   2.492   7.368
 3025SOL    HW220415   0.776   2.347   7.303
 3026SOL     OW20416   1.450   3.082   7.219
 3026SOL    HW120417   1.441   3.072   7.318
 3026SOL    HW220418   1.546   3.075   7.193
 3027SOL     OW20419   0.390   3.603   7.146
 3027SOL    HW120420   0.299   3.644   7.144
 3027SOL    HW220421   0.383   3.509   7.178
 3028SOL     OW20422   1.674   2.745   6.840
 3028SOL    HW120423   1.647   2.656   6.803
 3028SOL    HW220424   1.675   2.813   6.767
 3029SOL     OW20425   1.225   2.187   6.035
 3029SOL    HW120426   1.290   2.113   6.024
 3029SOL    HW220427   1.245   2.237   6.119
 3030SOL     OW20428   0.594   2.607   6.238
 3030SOL    HW120429   0.644   2.692   6.219
 3030SOL    HW220430   0.506   2.609   6.190
 3031SOL     OW20431   1.777   2.204   7.228
 3031SOL    HW120432   1.760   2.235   7.134
 3031SOL    HW220433   1.693   2.167   7.266
 3032SOL     OW20434   1.730   2.796   7.103
 3032SOL    HW120435   1.768   2.887   7.118
 3032SOL    HW220436   1.722   2.779   7.004
 3033SOL     OW20437   0.859   3.236   5.602
 3033SOL    HW120438   0.813   3.251   5.690
 3033SOL    HW220439   0.903   3.321   5.572
 3034SOL     OW20440   0.661   3.652   6.539
 3034SOL    HW120441   0.615   3.740   6.526
 3034SOL    HW220442   0.760   3.664   6.532
 3035SOL     OW20443   0.859   2.818   6.447
 3035SOL    HW120444   0.913   2.749   6.495
 3035SOL    HW220445   0.827   2.887   6.513
 3036SOL     OW20446   1.083   2.846   5.673
 3036SOL    HW120447   1.060   2.899   5.591
 3036SOL    HW220448   1.164   2.790   5.654
 3037SOL     OW20449   1.861   3.431   6.437
 3037SOL    HW120450   1.790   3.419   6.367
 3037SOL    HW220451   1.862   3.352   6.497
 3038SOL     OW20452   0.221   3.176   7.430
 3038SOL    HW120453   0.156   3.103   7.409
 3038SOL    HW220454   0.225   3.190   7.528
 3039SOL     OW20455   0.079   3.102   6.239
 3039SOL    HW120456   0.078   3.055   6.327
 3039SOL    HW220457   0.161   3.074   6.188
 3040SOL     OW20458   0.672   3.253   7.210
 3040SOL    HW120459   0.594   3.203   7.248
 3040SOL    HW220460   0.669   3.348   7.241
 3041SOL     OW20461   1.824   2.054   6.813
 3041SOL    HW120462   1.820   1.964   6.857
 3041SOL    HW220463   1.827   2.043   6.714
 3042SOL     OW20464   0.428   2.286   6.106
 3042SOL    HW120465   0.458   2.214   6.044
 3042SOL    HW220466   0.389   2.246   6.189
 3043SOL     OW20467   1.705   3.349   6.690
 3043SOL    HW120468   1.612   3.324   6.663
 3043SOL    HW220469   1.731   3.299   6.772
 3044SOL     OW20470   0.317   2.409   6.866
 3044SOL    HW120471   0.355   2.350   6.938
 3044SOL    HW220472   0.357   2.383   6.778
 3045SOL     OW20473   0.812   3.448   6.273
 3045SOL    HW120474   0.844   3.458   6.179
 3045SOL    HW220475   0.733   3.386   6.275
 3046SOL     OW20476   1.424   2.076   6.698
 3046SOL    HW120477   1.476   2.011   6.753
 3046SOL    HW220478   1.375   2.139   6.759
 3047SOL     OW20479   1.001   1.896   6.740
 3047SOL    HW120480   0.938   1.824   6.709
 3047SOL    HW220481   1.094   1.860   6.740
 3048SOL     OW20482   0.770   3.192   5.887
 3048SOL    HW120483   0.724   3.105   5.904
 3048SOL    HW220484   0.861   3.189   5.928
 3049SOL     OW20485   0.618   3.429   6.870
 3049SOL    HW120486   0.613   3.511   6.927
 3049SOL    HW220487   0.707   3.426   6.825
 3050SOL     OW20488   1.352   1.914   5.754
 3050SOL    HW120489   1.387   1.873   5.670
 3050SOL    HW220490   1.262   1.876   5.774
 3051SOL     OW20491   1.300   2.315   6.277
 3051SOL    HW120492   1.241   2.395   6.281
 3051SOL    HW220493   1.315   2.280   6.370
 3052SOL     OW20494   1.593   2.083   6.468
 3052SOL    HW120495   1.509   2.082   6.522
 3052SOL    HW220496   1.595   2.166   6.412
 3053SOL     OW20497   0.039   2.939   5.886
 3053SOL    HW120498   0.138   2.928   5.877
 3053SOL    HW220499  -0.001   2.853   5.918
 3054SOL     OW20500   0.875   3.508   5.923
 3054SOL    HW120501   0.798   3.473   5.869
 3054SOL    HW220502   0.843   3.579   5.985
 3055SOL     OW20503   0.230   2.490   7.561
 3055SOL    HW120504   0.137   2.488   7.598
 3055SOL    HW220505   0.231   2.451   7.469
 3056SOL     OW20506   0.225   2.137   8.444
 3056SOL    HW120507   0.260   2.120   8.536
 3056SOL    HW220508   0.137   2.092   8.432
 3057SOL     OW20509   0.019   2.230   8.095
 3057SOL    HW120510  -0.063   2.273   8.134
 3057SOL    HW220511  -0.009   2.157   8.032
 3058SOL     OW20512   0.569   3.137   8.613
 3058SOL    HW120513   0.476   3.130   8.576
 3058SOL    HW220514   0.580   3.226   8.657
 3059SOL     OW20515   1.555   3.373   8.151
 3059SOL    HW120516   1.498   3.357   8.232
 3059SOL    HW220517   1.496   3.383   8.071
 3060SOL     OW20518   1.135   2.565   8.165
 3060SOL    HW120519   1.192   2.643   8.140
 3060SOL    HW220520   1.075   2.591   8.241
 3061SOL     OW20521   1.755   2.469   7.679
 3061SOL    HW120522   1.743   2.456   7.580
 3061SOL    HW220523   1.725   2.388   7.728
 3062SOL     OW20524   0.768   3.006   8.471
 3062SOL    HW120525   0.690   3.023   8.531
 3062SOL    HW220526   0.802   3.093   8.435
 3063SOL     OW20527   0.850   2.660   9.271
 3063SOL    HW120528   0.846   2.736   9.336
 3063SOL    HW220529   0.872   2.696   9.180
 3064SOL     OW20530   0.685   2.874   8.113
 3064SOL    HW120531   0.754   2.858   8.183
 3064SOL    HW220532   0.612   2.931   8.151
 3065SOL     OW20533   0.686   3.023   9.251
 3065SOL    HW120534   0.746   3.102   9.265
 3065SOL    HW220535   0.600   3.054   9.210
 3066SOL     OW20536   0.335   3.297   8.509
 3066SOL    HW120537   0.257   3.266   8.456
 3066SOL    HW220538   0.393   3.355   8.452
 3067SOL     OW20539   1.460   3.367   8.787
 3067SOL    HW120540   1.484   3.461   8.813
 3067SOL    HW220541   1.444   3.313   8.869
 3068SOL     OW20542   0.438   2.254   8.947
 3068SOL    HW120543   0.520   2.198   8.956
 3068SOL    HW220544   0.357   2.196   8.951
 3069SOL     OW20545   1.603   2.309   8.185
 3069SOL    HW120546   1.529   2.355   8.135
 3069SOL    HW220547   1.654   2.377   8.238
 3070SOL     OW20548   0.231   3.575   7.931
 3070SOL    HW120549   0.265   3.652   7.985
 3070SOL    HW220550   0.275   3.575   7.841
 3071SOL     OW20551   1.127   3.203   9.138
 3071SOL    HW120552   1.174   3.203   9.226
 3071SOL    HW220553   1.079   3.116   9.127
 3072SOL     OW20554   0.230   3.296   7.986
 3072SOL    HW120555   0.204   3.392   7.986
 3072SOL    HW220556   0.159   3.242   8.031
 3073SOL     OW20557   0.240   2.953   8.334
 3073SOL    HW120558   0.254   2.869   8.386
 3073SOL    HW220559   0.185   3.017   8.389
 3074SOL     OW20560   0.620   3.648   8.887
 3074SOL    HW120561   0.528   3.631   8.922
 3074SOL    HW220562   0.648   3.740   8.913
 3075SOL     OW20563   0.606   2.826   7.571
 3075SOL    HW120564   0.613   2.910   7.517
 3075SOL    HW220565   0.652   2.839   7.659
 3076SOL     OW20566   1.594   1.976   8.928
 3076SOL    HW120567   1.576   2.043   8.856
 3076SOL    HW220568   1.591   2.022   9.017
 3077SOL     OW20569   0.122   2.505   8.011
 3077SOL    HW120570   0.077   2.417   8.028
 3077SOL    HW220571   0.121   2.559   8.095
 3078SOL     OW20572   1.842   3.629   7.807
 3078SOL    HW120573   1.896   3.600   7.887
 3078SOL    HW220574   1.872   3.719   7.778
 3079SOL     OW20575   0.027   3.458   7.565
 3079SOL    HW120576   0.008   3.362   7.586
 3079SOL    HW220577  -0.006   3.516   7.640
 3080SOL     OW20578   1.689   2.784   8.060
 3080SOL    HW120579   1.784   2.755   8.068
 3080SOL    HW220580   1.681   2.849   7.985
 3081SOL     OW20581   1.641   2.970   7.880
 3081SOL    HW120582   1.727   2.972   7.828
 3081SOL    HW220583   1.655   3.017   7.968
 3082SOL     OW20584   0.113   2.599   9.045
 3082SOL    HW120585   0.201   2.586   9.090
 3082SOL    HW220586   0.100   2.696   9.023
 3083SOL     OW20587   0.613   3.227   8.174
 3083SOL    HW120588   0.564   3.140   8.183
 3083SOL    HW220589   0.590   3.270   8.087
 3084SOL     OW20590   1.293   3.090   8.871
 3084SOL    HW120591   1.330   3.017   8.813
 3084SOL    HW220592   1.345   3.095   8.956
 3085SOL     OW20593   0.809   1.866   7.950
 3085SOL    HW120594   0.849   1.957   7.941
 3085SOL    HW220595   0.709   1.874   7.956
 3086SOL     OW20596   0.197   2.838   8.712
 3086SOL    HW120597   0.286   2.793   8.698
 3086SOL    HW220598   0.124   2.773   8.693
 3087SOL     OW20599   1.525   2.861   7.638
 3087SOL    HW120600   1.462   2.785   7.651
 3087SOL    HW220601   1.573   2.879   7.724
 3088SOL     OW20602   1.187   3.654   9.064
 3088SOL    HW120603   1.211   3.714   8.988
 3088SOL    HW220604   1.194   3.559   9.034
 3089SOL     OW20605   0.317   2.113   9.249
 3089SOL    HW120606   0.388   2.184   9.255
 3089SOL    HW220607   0.229   2.152   9.277
 3090SOL     OW20608   1.466   3.279   8.401
 3090SOL    HW120609   1.407   3.285   8.481
 3090SOL    HW220610   1.451   3.191   8.355
 3091SOL     OW20611   1.667   3.576   8.020
 3091SOL    HW120612   1.626   3.553   7.932
 3091SOL    HW220613   1.649   3.502   8.085
 3092SOL     OW20614   0.598   2.591   7.718
 3092SOL    HW120615   0.622   2.660   7.650
 3092SOL    HW220616   0.520   2.624   7.772
 3093SOL     OW20617   1.281   2.207   8.392
 3093SOL    HW120618   1.195   2.157   8.379
 3093SOL    HW220619   1.343   2.153   8.448
 3094SOL     OW20620   1.576   3.524   7.755
 3094SOL    HW120621   1.665   3.570   7.758
 3094SOL    HW220622   1.555   3.500   7.660
 3095SOL     OW20623   0.807   2.467   8.913
 3095SOL    HW120624   0.760   2.464   9.002
 3095SOL    HW220625   0.756   2.412   8.847
 3096SOL     OW20626   1.394   2.331   9.122
 3096SOL    HW120627   1.374   2.374   9.210
 3096SOL    HW220628   1.472   2.269   9.131
 3097SOL     OW20629   0.973   2.752   9.020
 3097SOL    HW120630   1.019   2.668   8.991
 3097SOL    HW220631   0.917   2.786   8.945
 3098SOL     OW20632   0.991   2.272   8.690
 3098SOL    HW120633   0.914   2.306   8.744
 3098SOL    HW220634   0.957   2.221   8.611
 3099SOL     OW20635   1.041   2.563   7.877
 3099SOL    HW120636   1.067   2.559   7.973
 3099SOL    HW220637   0.956   2.512   7.863
 3100SOL     OW20638   0.076   2.673   8.237
 3100SOL    HW120639   0.175   2.661   8.246
 3100SOL    HW220640   0.052   2.768   8.258
 3101SOL     OW20641   0.130   3.683   9.019
 3101SOL    HW120642   0.120   3.668   9.118
 3101SOL    HW220643   0.044   3.719   8.983
 3102SOL     OW20644   0.865   2.210   7.643
 3102SOL    HW120645   0.924   2.273   7.594
 3102SOL    HW220646   0.884   2.116   7.614
 3103SOL     OW20647   1.719   2.447   9.279
 3103SOL    HW120648   1.693   2.536   9.243
 3103SOL    HW220649   1.717   2.379   9.206
 3104SOL     OW20650   1.362   3.006   7.993
 3104SOL    HW120651   1.445   2.977   7.945
 3104SOL    HW220652   1.313   3.073   7.937
 3105SOL     OW20653   0.550   2.058   8.333
 3105SOL    HW120654   0.545   2.053   8.433
 3105SOL    HW220655   0.552   2.154   8.304
 3106SOL     OW20656   1.008   3.318   7.925
 3106SOL    HW120657   0.962   3.390   7.873
 3106SOL    HW220658   1.004   3.338   8.023
 3107SOL     OW20659   0.351   3.663   8.301
 3107SOL    HW120660   0.401   3.577   8.307
 3107SOL    HW220661   0.416   3.740   8.298
 3108SOL     OW20662   1.795   2.928   8.321
 3108SOL    HW120663   1.733   2.913   8.245
 3108SOL    HW220664   1.743   2.939   8.406
 3109SOL     OW20665   1.227   3.412   8.954
 3109SOL    HW120666   1.233   3.335   9.018
 3109SOL    HW220667   1.175   3.386   8.874
 3110SOL     OW20668   0.321   2.805   7.690
 3110SOL    HW120669   0.403   2.844   7.648
 3110SOL    HW220670   0.294   2.723   7.641
 3111SOL     OW20671   1.458   2.597   8.176
 3111SOL    HW120672   1.453   2.532   8.251
 3111SOL    HW220673   1.538   2.656   8.189
 3112SOL     OW20674   0.461   3.128   9.175
 3112SOL    HW120675   0.411   3.129   9.089
 3112SOL    HW220676   0.398   3.110   9.251
 3113SOL     OW20677   1.111   3.638   7.685
 3113SOL    HW120678   1.051   3.576   7.735
 3113SOL    HW220679   1.142   3.594   7.600
 3114SOL     OW20680   0.202   2.147   8.946
 3114SOL    HW120681   0.122   2.207   8.933
 3114SOL    HW220682   0.192   2.098   9.032
 3115SOL     OW20683   1.632   3.239   7.529
 3115SOL    HW120684   1.600   3.333   7.519
 3115SOL    HW220685   1.556   3.176   7.517
 3116SOL     OW20686   0.464   3.605   7.771
 3116SOL    HW120687   0.497   3.644   7.857
 3116SOL    HW220688   0.540   3.598   7.706
 3117SOL     OW20689   1.400   1.969   7.874
 3117SOL    HW120690   1.376   1.932   7.784
 3117SOL    HW220691   1.499   1.985   7.878
 3118SOL     OW20692   0.249   3.647   8.689
 3118SOL    HW120693   0.306   3.582   8.739
 3118SOL    HW220694   0.233   3.614   8.596
 3119SOL     OW20695   0.940   3.560   8.352
 3119SOL    HW120696   1.020   3.503   8.373
 3119SOL    HW220697   0.891   3.520   8.275
 3120SOL     OW20698   0.382   2.562   7.928
 3120SOL    HW120699   0.427   2.472   7.925
 3120SOL    HW220700   0.288   2.551   7.961
 3121SOL     OW20701   1.547   2.084   9.177
 3121SOL    HW120702   1.542   2.121   9.269
 3121SOL    HW220703   1.475   2.015   9.165
 3122SOL     OW20704   0.614   1.984   7.565
 3122SOL    HW120705   0.712   1.962   7.572
 3122SOL    HW220706   0.583   1.967   7.472
 3123SOL     OW20707   0.781   2.126   9.197
 3123SOL    HW120708   0.848   2.065   9.240
 3123SOL    HW220709   0.708   2.145   9.262
 3124SOL     OW20710   0.888   3.376   8.643
 3124SOL    HW120711   0.865   3.351   8.549
 3124SOL    HW220712   0.949   3.307   8.682
 3125SOL     OW20713   1.351   2.452   8.881
 3125SOL    HW120714   1.379   2.409   8.966
 3125SOL    HW220715   1.376   2.548   8.882
 3126SOL     OW20716   0.803   3.264   8.372
 3126SOL    HW120717   0.893   3.278   8.330
 3126SOL    HW220718   0.732   3.266   8.301
 3127SOL     OW20719   0.922   2.365   8.347
 3127SOL    HW120720   0.897   2.356   8.251
 3127SOL    HW220721   0.970   2.283   8.378
 3128SOL     OW20722   0.539   1.926   7.960
 3128SOL    HW120723   0.458   1.927   8.018
 3128SOL    HW220724   0.542   2.009   7.905
 3129SOL     OW20725   1.434   3.050   7.489
 3129SOL    HW120726   1.466   2.974   7.546
 3129SOL    HW220727   1.342   3.077   7.519
 3130SOL     OW20728   0.297   1.897   7.619
 3130SOL    HW120729   0.346   1.981   7.598
 3130SOL    HW220730   0.359   1.832   7.664
 3131SOL     OW20731   0.935   2.098   7.928
 3131SOL    HW120732   0.887   2.139   7.850
 3131SOL    HW220733   1.034   2.096   7.909
 3132SOL     OW20734   1.076   2.545   8.912
 3132SOL    HW120735   0.996   2.484   8.915
 3132SOL    HW220736   1.157   2.492   8.888
 3133SOL     OW20737   1.227   3.432   8.241
 3133SOL    HW120738   1.248   3.506   8.176
 3133SOL    HW220739   1.295   3.432   8.314
 3134SOL     OW20740   0.459   3.014   8.189
 3134SOL    HW120741   0.388   2.987   8.254
 3134SOL    HW220742   0.433   2.986   8.096
 3135SOL     OW20743   1.271   3.659   8.039
 3135SOL    HW120744   1.315   3.723   7.975
 3135SOL    HW220745   1.221   3.711   8.109
 3136SOL     OW20746   1.032   2.411   7.464
 3136SOL    HW120747   0.991   2.493   7.425
 3136SOL    HW220748   1.096   2.437   7.537
 3137SOL     OW20749   0.078   2.418   8.834
 3137SOL    HW120750   0.170   2.417   8.793
 3137SOL    HW220751   0.072   2.492   8.901
 3138SOL     OW20752   0.561   2.084   8.595
 3138SOL    HW120753   0.599   2.000   8.632
 3138SOL    HW220754   0.473   2.103   8.639
 3139SOL     OW20755   0.866   2.316   8.090
 3139SOL    HW120756   0.834   2.388   8.028
 3139SOL    HW220757   0.890   2.235   8.037
 3140SOL     OW20758   1.017   1.901   8.201
 3140SOL    HW120759   0.945   1.906   8.132
 3140SOL    HW220760   0.993   1.832   8.270
 3141SOL     OW20761   1.429   3.035   8.315
 3141SOL    HW120762   1.374   2.951   8.308
 3141SOL    HW220763   1.455   3.064   8.223
 3142SOL     OW20764   1.466   2.452   8.440
 3142SOL    HW120765   1.436   2.357   8.447
 3142SOL    HW220766   1.539   2.468   8.506
 3143SOL     OW20767   1.857   2.695   7.825
 3143SOL    HW120768   1.899   2.631   7.889
 3143SOL    HW220769   1.819   2.644   7.747
 3144SOL     OW20770   0.488   3.247   7.622
 3144SOL    HW120771   0.401   3.232   7.669
 3144SOL    HW220772   0.471   3.273   7.527
 3145SOL     OW20773   1.664   3.142   8.105
 3145SOL    HW120774   1.763   3.150   8.119
 3145SOL    HW220775   1.619   3.226   8.136
 3146SOL     OW20776   1.390   2.437   7.526
 3146SOL    HW120777   1.336   2.416   7.607
 3146SOL    HW220778   1.481   2.396   7.535
 3147SOL     OW20779   0.527   2.118   7.776
 3147SOL    HW120780   0.554   2.059   7.701
 3147SOL    HW220781   0.527   2.213   7.745
 3148SOL     OW20782   1.754   3.085   9.036
 3148SOL    HW120783   1.845   3.046   9.023
 3148SOL    HW220784   1.762   3.181   9.060
 3149SOL     OW20785   1.064   3.209   8.788
 3149SOL    HW120786   0.984   3.186   8.843
 3149SOL    HW220787   1.147   3.183   8.837
 3150SOL     OW20788   1.592   3.491   9.073
 3150SOL    HW120789   1.619   3.525   8.983
 3150SOL    HW220790   1.671   3.453   9.119
 3151SOL     OW20791   1.111   3.057   8.548
 3151SOL    HW120792   1.071   3.101   8.629
 3151SOL    HW220793   1.070   3.094   8.465
 3152SOL     OW20794   1.638   2.961   8.527
 3152SOL    HW120795   1.643   3.042   8.586
 3152SOL    HW220796   1.552   2.963   8.476
 3153SOL     OW20797   0.915   1.951   8.850
 3153SOL    HW120798   0.940   1.931   8.755
 3153SOL    HW220799   0.987   2.007   8.892
 3154SOL     OW20800   0.980   2.978   9.167
 3154SOL    HW120801   0.881   2.984   9.177
 3154SOL    HW220802   1.003   2.898   9.111
 3155SOL     OW20803   0.705   2.912   7.816
 3155SOL    HW120804   0.691   2.919   7.915
 3155SOL    HW220805   0.789   2.861   7.798
 3156SOL     OW20806   0.410   2.675   8.699
 3156SOL    HW120807   0.496   2.687   8.749
 3156SOL    HW220808   0.368   2.588   8.726
 3157SOL     OW20809   1.274   2.248   8.710
 3157SOL    HW120810   1.295   2.322   8.774
 3157SOL    HW220811   1.185   2.265   8.667
 3158SOL     OW20812   0.064   3.426   8.779
 3158SOL    HW120813   0.018   3.508   8.745
 3158SOL    HW220814   0.162   3.445   8.788
 3159SOL     OW20815   0.367   2.962   7.949
 3159SOL    HW120816   0.360   3.045   7.893
 3159SOL    HW220817   0.371   2.882   7.889
 3160SOL     OW20818   0.566   2.399   8.313
 3160SOL    HW120819   0.578   2.465   8.239
 3160SOL    HW220820   0.612   2.433   8.396
 3161SOL     OW20821   1.252   3.210   7.836
 3161SOL    HW120822   1.302   3.287   7.876
 3161SOL    HW220823   1.157   3.212   7.868
 3162SOL     OW20824   1.272   3.307   8.590
 3162SOL    HW120825   1.319   3.320   8.677
 3162SOL    HW220826   1.206   3.233   8.599
 3163SOL     OW20827   1.582   2.501   7.920
 3163SOL    HW120828   1.551   2.562   7.993
 3163SOL    HW220829   1.632   2.553   7.851
 3164SOL     OW20830   0.402   2.613   9.046
 3164SOL    HW120831   0.470   2.668   8.999
 3164SOL    HW220832   0.442   2.525   9.073
 3165SOL     OW20833   1.587   2.641   9.118
 3165SOL    HW120834   1.495   2.679   9.113
 3165SOL    HW220835   1.647   2.688   9.053
 3166SOL     OW20836   1.013   1.967   9.218
 3166SOL    HW120837   1.019   2.052   9.166
 3166SOL    HW220838   1.045   1.891   9.161
 3167SOL     OW20839   0.504   1.912   9.188
 3167SOL    HW120840   0.462   1.855   9.118
 3167SOL    HW220841   0.438   1.981   9.220
 3168SOL     OW20842   0.573   2.732   8.477
 3168SOL    HW120843   0.617   2.821   8.468
 3168SOL    HW220844   0.510   2.732   8.554
 3169SOL     OW20845   1.360   2.724   8.493
 3169SOL    HW120846   1.285   2.724   8.427
 3169SOL    HW220847   1.397   2.632   8.502
 3170SOL     OW20848   1.209   2.387   7.723
 3170SOL    HW120849   1.222   2.303   7.777
 3170SOL    HW220850   1.180   2.461   7.783
 3171SOL     OW20851   0.037   3.172   8.730
 3171SOL    HW120852   0.090   3.123   8.798
 3171SOL    HW220853   0.059   3.270   8.735
 3172SOL     OW20854   0.732   2.496   8.512
 3172SOL    HW120855   0.791   2.470   8.436
 3172SOL    HW220856   0.704   2.592   8.501
 3173SOL     OW20857   1.728   2.797   9.302
 3173SOL    HW120858   1.682   2.790   9.213
 3173SOL    HW220859   1.666   2.841   9.368
 3174SOL     OW20860   0.307   1.925   8.066
 3174SOL    HW120861   0.296   2.019   8.099
 3174SOL    HW220862   0.302   1.862   8.143
 3175SOL     OW20863   1.622   2.229   7.822
 3175SOL    HW120864   1.624   2.153   7.886
 3175SOL    HW220865   1.574   2.306   7.862
 3176SOL     OW20866   1.023   2.628   8.414
 3176SOL    HW120867   1.038   2.649   8.510
 3176SOL    HW220868   0.993   2.533   8.405
 3177SOL     OW20869   0.980   3.435   9.148
 3177SOL    HW120870   0.960   3.479   9.060
 3177SOL    HW220871   1.019   3.344   9.132
 3178SOL     OW20872   0.350   2.760   9.252
 3178SOL    HW120873   0.426   2.804   9.300
 3178SOL    HW220874   0.385   2.713   9.170
 3179SOL     OW20875   1.540   2.136   7.573
 3179SOL    HW120876   1.479   2.061   7.596
 3179SOL    HW220877   1.562   2.188   7.656
 3180SOL     OW20878   1.303   2.700   7.490
 3180SOL    HW120879   1.337   2.607   7.505
 3180SOL    HW220880   1.321   2.727   7.395
 3181SOL     OW20881   1.068   3.195   8.297
 3181SOL    HW120882   1.075   3.111   8.242
 3181SOL    HW220883   1.130   3.264   8.261
 3182SOL     OW20884   0.319   2.672   8.397
 3182SOL    HW120885   0.412   2.708   8.402
 3182SOL    HW220886   0.313   2.587   8.449
 3183SOL     OW20887   0.339   2.371   8.454
 3183SOL    HW120888   0.287   2.288   8.437
 3183SOL    HW220889   0.416   2.376   8.390
 3184SOL     OW20890   1.138   2.242   9.126
 3184SOL    HW120891   1.093   2.305   9.190
 3184SOL    HW220892   1.231   2.273   9.109
 3185SOL     OW20893   1.160   2.069   8.925
 3185SOL    HW120894   1.160   2.133   9.002
 3185SOL    HW220895   1.188   2.117   8.842
 3186SOL     OW20896   0.008   3.188   7.648
 3186SOL    HW120897  -0.085   3.209   7.617
 3186SOL    HW220898   0.018   3.089   7.661
 3187SOL     OW20899   0.088   3.663   8.375
 3187SOL    HW120900   0.046   3.577   8.348
 3187SOL    HW220901   0.182   3.666   8.341
 3188SOL     OW20902   0.504   3.430   8.358
 3188SOL    HW120903   0.570   3.504   8.367
 3188SOL    HW220904   0.548   3.351   8.316
 3189SOL     OW20905   1.002   2.658   8.686
 3189SOL    HW120906   1.043   2.626   8.772
 3189SOL    HW220907   0.906   2.631   8.683
 3190SOL     OW20908   0.040   2.406   8.562
 3190SOL    HW120909   0.125   2.373   8.521
 3190SOL    HW220910   0.053   2.421   8.660
 3191SOL     OW20911   0.189   2.382   9.170
 3191SOL    HW120912   0.248   2.342   9.100
 3191SOL    HW220913   0.131   2.453   9.129
 3192SOL     OW20914   1.369   2.812   9.108
 3192SOL    HW120915   1.408   2.901   9.128
 3192SOL    HW220916   1.379   2.792   9.011
 3193SOL     OW20917   0.815   2.434   7.773
 3193SOL    HW120918   0.822   2.345   7.727
 3193SOL    HW220919   0.721   2.468   7.765
 3194SOL     OW20920   1.657   2.466   8.654
 3194SOL    HW120921   1.619   2.397   8.716
 3194SOL    HW220922   1.739   2.430   8.610
 3195SOL     OW20923   0.252   3.426   9.192
 3195SOL    HW120924   0.222   3.483   9.268
 3195SOL    HW220925   0.245   3.329   9.218
 3196SOL     OW20926   0.671   2.326   8.717
 3196SOL    HW120927   0.637   2.237   8.687
 3196SOL    HW220928   0.697   2.380   8.637
 3197SOL     OW20929   0.930   3.540   8.913
 3197SOL    HW120930   0.906   3.522   8.818
 3197SOL    HW220931   0.960   3.634   8.923
 3198SOL     OW20932   0.473   2.362   7.639
 3198SOL    HW120933   0.534   2.442   7.643
 3198SOL    HW220934   0.378   2.393   7.646
 3199SOL     OW20935   0.159   2.999   8.914
 3199SOL    HW120936   0.181   2.938   8.990
 3199SOL    HW220937   0.169   2.950   8.828
 3200SOL     OW20938   1.347   2.921   8.682
 3200SOL    HW120939   1.371   2.858   8.608
 3200SOL    HW220940   1.257   2.961   8.664
 3201SOL     OW20941   1.302   2.717   7.757
 3201SOL    HW120942   1.216   2.686   7.799
 3201SOL    HW220943   1.298   2.703   7.658
 3202SOL     OW20944   1.759   3.609   8.602
 3202SOL    HW120945   1.820   3.639   8.529
 3202SOL    HW220946   1.721   3.520   8.580
 3203SOL     OW20947   1.252   3.593   8.576
 3203SOL    HW120948   1.336   3.598   8.522
 3203SOL    HW220949   1.229   3.497   8.594
 3204SOL     OW20950   0.083   3.120   8.470
 3204SOL    HW120951   0.078   3.119   8.570
 3204SOL    HW220952   0.000   3.079   8.432
 3205SOL     OW20953   0.688   3.524   9.164
 3205SOL    HW120954   0.632   3.605   9.173
 3205SOL    HW220955   0.740   3.528   9.078
 3206SOL     OW20956   1.726   1.997   7.971
 3206SOL    HW120957   1.799   1.980   7.904
 3206SOL    HW220958   1.695   1.910   8.009
 3207SOL     OW20959   1.388   3.435   7.925
 3207SOL    HW120960   1.455   3.447   7.851
 3207SOL    HW220961   1.348   3.524   7.948
 3208SOL     OW20962   0.130   3.656   9.299
 3208SOL    HW120963   0.089   3.582   9.352
 3208SOL    HW220964   0.194   3.707   9.357
 3209SOL     OW20965   1.280   2.789   8.120
 3209SOL    HW120966   1.340   2.708   8.122
 3209SOL    HW220967   1.320   2.858   8.060
 3210SOL     OW20968   0.830   3.135   8.870
 3210SOL    HW120969   0.825   3.168   8.965
 3210SOL    HW220970   0.744   3.154   8.824
 3211SOL     OW20971   0.672   3.478   7.602
 3211SOL    HW120972   0.681   3.488   7.503
 3211SOL    HW220973   0.632   3.389   7.623
 3212SOL     OW20974   1.650   3.582   8.842
 3212SOL    HW120975   1.703   3.592   8.758
 3212SOL    HW220976   1.623   3.672   8.876
 3213SOL     OW20977   1.841   2.037   8.411
 3213SOL    HW120978   1.880   1.952   8.375
 3213SOL    HW220979   1.743   2.039   8.392
 3214SOL     OW20980   0.263   2.188   8.168
 3214SOL    HW120981   0.184   2.239   8.134
 3214SOL    HW220982   0.254   2.173   8.266
 3215SOL     OW20983   1.194   3.474   7.479
 3215SOL    HW120984   1.200   3.381   7.516
 3215SOL    HW220985   1.135   3.474   7.399
 3216SOL     OW20986   0.822   2.864   8.820
 3216SOL    HW120987   0.862   2.863   8.728
 3216SOL    HW220988   0.832   2.956   8.860
 3217SOL     OW20989   0.916   2.772   7.739
 3217SOL    HW120990   0.979   2.810   7.671
 3217SOL    HW220991   0.956   2.689   7.778
 3218SOL     OW20992   1.504   3.469   7.492
 3218SOL    HW120993   1.412   3.506   7.499
 3218SOL    HW220994   1.542   3.489   7.402
 3219SOL     OW20995   0.372   3.150   8.938
 3219SOL    HW120996   0.359   3.243   8.904
 3219SOL    HW220997   0.288   3.098   8.925
 3220SOL     OW20998   1.614   3.154   8.737
 3220SOL    HW120999   1.674   3.157   8.817
 3220SOL    HW221000   1.539   3.218   8.750
 3221SOL     OW21001   1.039   2.960   8.144
 3221SOL    HW121002   0.969   2.913   8.198
 3221SOL    HW221003   1.098   2.892   8.101
 3222SOL     OW21004   1.014   2.098   8.419
 3222SOL    HW121005   1.006   2.062   8.326
 3222SOL    HW221006   1.012   2.022   8.484
 3223SOL     OW21007   0.590   3.349   7.939
 3223SOL    HW121008   0.632   3.291   7.869
 3223SOL    HW221009   0.546   3.428   7.895
 3224SOL     OW21010   1.709   2.247   8.829
 3224SOL    HW121011   1.782   2.316   8.833
 3224SOL    HW221012   1.737   2.172   8.770
 3225SOL     OW21013   0.255   3.210   7.738
 3225SOL    HW121014   0.159   3.211   7.711
 3225SOL    HW221015   0.267   3.263   7.822
 3226SOL     OW21016   0.105   2.875   9.174
 3226SOL    HW121017   0.028   2.842   9.228
 3226SOL    HW221018   0.190   2.845   9.216
 3227SOL     OW21019   0.672   2.065   8.937
 3227SOL    HW121020   0.762   2.049   8.897
 3227SOL    HW221021   0.680   2.070   9.036
 3228SOL     OW21022   0.075   2.207   7.481
 3228SOL    HW121023  -0.017   2.179   7.452
 3228SOL    HW221024   0.106   2.284   7.425
 3229SOL     OW21025   1.440   2.718   8.846
 3229SOL    HW121026   1.383   2.770   8.783
 3229SOL    HW221027   1.536   2.730   8.822
 3230SOL     OW21028   0.072   2.028   7.766
 3230SOL    HW121029   0.055   2.111   7.712
 3230SOL    HW221030   0.162   1.991   7.744
 3231SOL     OW21031   1.183   3.197   7.567
 3231SOL    HW121032   1.084   3.186   7.569
 3231SOL    HW221033   1.217   3.212   7.660
 3232SOL     OW21034   0.613   2.704   8.879
 3232SOL    HW121035   0.669   2.785   8.862
 3232SOL    HW221036   0.672   2.624   8.882
 3233SOL     OW21037   1.493   3.629   8.407
 3233SOL    HW121038   1.526   3.693   8.338
 3233SOL    HW221039   1.559   3.623   8.482
 3234SOL     OW21040   0.716   2.427   9.156
 3234SOL    HW121041   0.735   2.492   9.230
 3234SOL    HW221042   0.776   2.347   9.165
 3235SOL     OW21043   1.450   3.082   9.081
 3235SOL    HW121044   1.441   3.072   9.180
 3235SOL    HW221045   1.546   3.075   9.055
 3236SOL     OW21046   1.674   2.745   8.702
 3236SOL    HW121047   1.647   2.656   8.665
 3236SOL    HW221048   1.675   2.813   8.629
 3237SOL     OW21049   1.225   2.187   7.897
 3237SOL    HW121050   1.290   2.113   7.886
 3237SOL    HW221051   1.245   2.237   7.981
 3238SOL     OW21052   0.594   2.607   8.100
 3238SOL    HW121053   0.644   2.692   8.081
 3238SOL    HW221054   0.506   2.609   8.052
 3239SOL     OW21055   1.777   2.204   9.090
 3239SOL    HW121056   1.760   2.235   8.996
 3239SOL    HW221057   1.693   2.167   9.128
 3240SOL     OW21058   1.730   2.796   8.965
 3240SOL    HW121059   1.768   2.887   8.980
 3240SOL    HW221060   1.722   2.779   8.866
 3241SOL     OW21061   0.859   3.236   7.464
 3241SOL    HW121062   0.813   3.251   7.552
 3241SOL    HW221063   0.903   3.321   7.434
 3242SOL     OW21064   0.661   3.652   8.401
 3242SOL    HW121065   0.615   3.740   8.388
 3242SOL    HW221066   0.760   3.664   8.394
 3243SOL     OW21067   0.859   2.818   8.309
 3243SOL    HW121068   0.913   2.749   8.357
 3243SOL    HW221069   0.827   2.887   8.375
 3244SOL     OW21070   1.083   2.846   7.535
 3244SOL    HW121071   1.060   2.899   7.453
 3244SOL    HW221072   1.164   2.790   7.516
 3245SOL     OW21073   1.861   3.431   8.299
 3245SOL    HW121074   1.790   3.419   8.229
 3245SOL    HW221075   1.862   3.352   8.359
 3246SOL     OW21076   0.221   3.176   9.292
 3246SOL    HW121077   0.156   3.103   9.271
 3246SOL    HW221078   0.225   3.190   9.390
 3247SOL     OW21079   0.079   3.102   8.101
 3247SOL    HW121080   0.078   3.055   8.189
 3247SOL    HW221081   0.161   3.074   8.050
 3248SOL     OW21082   0.672   3.253   9.072
 3248SOL    HW121083   0.594   3.203   9.110
 3248SOL    HW221084   0.669   3.348   9.103
 3249SOL     OW21085   1.824   2.054   8.675
 3249SOL    HW121086   1.820   1.964   8.719
 3249SOL    HW221087   1.827   2.043   8.576
 3250SOL     OW21088   0.428   2.286   7.968
 3250SOL    HW121089   0.458   2.214   7.906
 3250SOL    HW221090   0.389   2.246   8.051
 3251SOL     OW21091   1.705   3.349   8.552
 3251SOL    HW121092   1.612   3.324   8.525
 3251SOL    HW221093   1.731   3.299   8.634
 3252SOL     OW21094   0.317   2.409   8.728
 3252SOL    HW121095   0.355   2.350   8.800
 3252SOL    HW221096   0.357   2.383   8.640
 3253SOL     OW21097   0.812   3.448   8.135
 3253SOL    HW121098   0.844   3.458   8.041
 3253SOL    HW221099   0.733   3.386   8.137
 3254SOL     OW21100   1.424   2.076   8.560
 3254SOL    HW121101   1.476   2.011   8.615
 3254SOL    HW221102   1.375   2.139   8.621
 3255SOL     OW21103   1.001   1.896   8.602
 3255SOL    HW121104   0.938   1.824   8.571
 3255SOL    HW221105   1.094   1.860   8.602
 3256SOL     OW21106   0.770   3.192   7.749
 3256SOL    HW121107   0.724   3.105   7.766
 3256SOL    HW221108   0.861   3.189   7.790
 3257SOL     OW21109   0.618   3.429   8.732
 3257SOL    HW121110   0.613   3.511   8.789
 3257SOL    HW221111   0.707   3.426   8.687
 3258SOL     OW21112   1.352   1.914   7.616
 3258SOL    HW121113   1.387   1.873   7.532
 3258SOL    HW221114   1.262   1.876   7.636
 3259SOL     OW21115   1.300   2.315   8.139
 3259SOL    HW121116   1.241   2.395   8.143
 3259SOL    HW221117   1.315   2.280   8.232
 3260SOL     OW21118   1.593   2.083   8.330
 3260SOL    HW121119   1.509   2.082   8.384
 3260SOL    HW221120   1.595   2.166   8.274
 3261SOL     OW21121   0.039   2.939   7.748
 3261SOL    HW121122   0.138   2.928   7.739
 3261SOL    HW221123  -0.001   2.853   7.780
 3262SOL     OW21124   0.875   3.508   7.785
 3262SOL    HW121125   0.798   3.473   7.731
 3262SOL    HW221126   0.843   3.579   7.847
 3263SOL     OW21127   0.230   2.490   9.423
 3263SOL    HW121128   0.137   2.488   9.460
 3263SOL    HW221129   0.231   2.451   9.331
 3264SOL     OW21130   0.225   2.137  10.306
 3264SOL    HW121131   0.260   2.120  10.398
 3264SOL    HW221132   0.137   2.092  10.294
 3265SOL     OW21133   0.019   2.230   9.957
 3265SOL    HW121134  -0.063   2.273   9.996
 3265SOL    HW221135  -0.009   2.157   9.894
 3266SOL     OW21136   0.569   3.137  10.475
 3266SOL    HW121137   0.476   3.130  10.438
 3266SOL    HW221138   0.580   3.226  10.519
 3267SOL     OW21139   1.555   3.373  10.013
 3267SOL    HW121140   1.498   3.357  10.094
 3267SOL    HW221141   1.496   3.383   9.933
 3268SOL     OW21142   1.135   2.565  10.027
 3268SOL    HW121143   1.192   2.643  10.002
 3268SOL    HW221144   1.075   2.591  10.103
 3269SOL     OW21145   0.620   3.648  10.749
 3269SOL    HW121146   0.528   3.631  10.784
 3269SOL    HW221147   0.648   3.740  10.775
 3270SOL     OW21148   0.606   2.826   9.433
 3270SOL    HW121149   0.613   2.910   9.379
 3270SOL    HW221150   0.652   2.839   9.521
 3271SOL     OW21151   1.594   1.976  10.790
 3271SOL    HW121152   1.576   2.043  10.718
 3271SOL    HW221153   1.591   2.022  10.879
 3272SOL     OW21154   0.122   2.505   9.873
 3272SOL    HW121155   0.077   2.417   9.890
 3272SOL    HW221156   0.121   2.559   9.957
 3273SOL     OW21157   0.027   3.458   9.427
 3273SOL    HW121158   0.008   3.362   9.448
 3273SOL    HW221159  -0.006   3.516   9.502
 3274SOL     OW21160   0.809   1.866   9.812
 3274SOL    HW121161   0.849   1.957   9.803
 3274SOL    HW221162   0.709   1.874   9.818
 3275SOL     OW21163   0.317   2.113  11.111
 3275SOL    HW121164   0.388   2.184  11.117
 3275SOL    HW221165   0.229   2.152  11.139
 3276SOL     OW21166   1.466   3.279  10.263
 3276SOL    HW121167   1.407   3.285  10.343
 3276SOL    HW221168   1.451   3.191  10.217
 3277SOL     OW21169   1.667   3.576   9.882
 3277SOL    HW121170   1.626   3.553   9.794
 3277SOL    HW221171   1.649   3.502   9.947
 3278SOL     OW21172   0.598   2.591   9.580
 3278SOL    HW121173   0.622   2.660   9.512
 3278SOL    HW221174   0.520   2.624   9.634
 3279SOL     OW21175   1.281   2.207  10.254
 3279SOL    HW121176   1.195   2.157  10.241
 3279SOL    HW221177   1.343   2.153  10.310
 3280SOL     OW21178   1.576   3.524   9.617
 3280SOL    HW121179   1.665   3.570   9.620
 3280SOL    HW221180   1.555   3.500   9.522
 3281SOL     OW21181   1.394   2.331  10.984
 3281SOL    HW121182   1.374   2.374  11.072
 3281SOL    HW221183   1.472   2.269  10.993
 3282SOL     OW21184   1.041   2.563   9.739
 3282SOL    HW121185   1.067   2.559   9.835
 3282SOL    HW221186   0.956   2.512   9.725
 3283SOL     OW21187   0.865   2.210   9.505
 3283SOL    HW121188   0.924   2.273   9.456
 3283SOL    HW221189   0.884   2.116   9.476
 3284SOL     OW21190   1.719   2.447  11.141
 3284SOL    HW121191   1.693   2.536  11.105
 3284SOL    HW221192   1.717   2.379  11.068
 3285SOL     OW21193   0.550   2.058  10.195
 3285SOL    HW121194   0.545   2.053  10.295
 3285SOL    HW221195   0.552   2.154  10.166
 3286SOL     OW21196   0.351   3.663  10.163
 3286SOL    HW121197   0.401   3.577  10.169
 3286SOL    HW221198   0.416   3.740  10.160
 3287SOL     OW21199   0.321   2.805   9.552
 3287SOL    HW121200   0.403   2.844   9.510
 3287SOL    HW221201   0.294   2.723   9.503
 3288SOL     OW21202   1.111   3.638   9.547
 3288SOL    HW121203   1.051   3.576   9.597
 3288SOL    HW221204   1.142   3.594   9.462
 3289SOL     OW21205   1.400   1.969   9.736
 3289SOL    HW121206   1.376   1.932   9.646
 3289SOL    HW221207   1.499   1.985   9.740
 3290SOL     OW21208   0.940   3.560  10.214
 3290SOL    HW121209   1.020   3.503  10.235
 3290SOL    HW221210   0.891   3.520  10.137
 3291SOL     OW21211   1.547   2.084  11.039
 3291SOL    HW121212   1.542   2.121  11.131
 3291SOL    HW221213   1.475   2.015  11.027
 3292SOL     OW21214   0.614   1.984   9.427
 3292SOL    HW121215   0.712   1.962   9.434
 3292SOL    HW221216   0.583   1.967   9.334
 3293SOL     OW21217   0.539   1.926   9.822
 3293SOL    HW121218   0.458   1.927   9.880
 3293SOL    HW221219   0.542   2.009   9.767
 3294SOL     OW21220   1.434   3.050   9.351
 3294SOL    HW121221   1.466   2.974   9.408
 3294SOL    HW221222   1.342   3.077   9.381
 3295SOL     OW21223   0.297   1.897   9.481
 3295SOL    HW121224   0.346   1.981   9.460
 3295SOL    HW221225   0.359   1.832   9.526
 3296SOL     OW21226   0.935   2.098   9.790
 3296SOL    HW121227   0.887   2.139   9.712
 3296SOL    HW221228   1.034   2.096   9.771
 3297SOL     OW21229   1.076   2.545  10.774
 3297SOL    HW121230   0.996   2.484  10.777
 3297SOL    HW221231   1.157   2.492  10.750
 3298SOL     OW21232   1.227   3.432  10.103
 3298SOL    HW121233   1.248   3.506  10.038
 3298SOL    HW221234   1.295   3.432  10.176
 3299SOL     OW21235   1.271   3.659   9.901
 3299SOL    HW121236   1.315   3.723   9.837
 3299SOL    HW221237   1.221   3.711   9.971
 3300SOL     OW21238   1.032   2.411   9.326
 3300SOL    HW121239   0.991   2.493   9.287
 3300SOL    HW221240   1.096   2.437   9.399
 3301SOL     OW21241   0.866   2.316   9.952
 3301SOL    HW121242   0.834   2.388   9.890
 3301SOL    HW221243   0.890   2.235   9.899
 3302SOL     OW21244   1.017   1.901  10.063
 3302SOL    HW121245   0.945   1.906   9.994
 3302SOL    HW221246   0.993   1.832  10.132
 3303SOL     OW21247   0.488   3.247   9.484
 3303SOL    HW121248   0.401   3.232   9.531
 3303SOL    HW221249   0.471   3.273   9.389
 3304SOL     OW21250   0.527   2.118   9.638
 3304SOL    HW121251   0.554   2.059   9.563
 3304SOL    HW221252   0.527   2.213   9.607
 3305SOL     OW21253   1.754   3.085  10.898
 3305SOL    HW121254   1.845   3.046  10.885
 3305SOL    HW221255   1.762   3.181  10.922
 3306SOL     OW21256   1.638   2.961  10.389
 3306SOL    HW121257   1.643   3.042  10.448
 3306SOL    HW221258   1.552   2.963  10.338
 3307SOL     OW21259   0.705   2.912   9.678
 3307SOL    HW121260   0.691   2.919   9.777
 3307SOL    HW221261   0.789   2.861   9.660
 3308SOL     OW21262   1.274   2.248  10.572
 3308SOL    HW121263   1.295   2.322  10.636
 3308SOL    HW221264   1.185   2.265  10.529
 3309SOL     OW21265   1.252   3.210   9.698
 3309SOL    HW121266   1.302   3.287   9.738
 3309SOL    HW221267   1.157   3.212   9.730
 3310SOL     OW21268   1.360   2.724  10.355
 3310SOL    HW121269   1.285   2.724  10.289
 3310SOL    HW221270   1.397   2.632  10.364
 3311SOL     OW21271   1.209   2.387   9.585
 3311SOL    HW121272   1.222   2.303   9.639
 3311SOL    HW221273   1.180   2.461   9.645
 3312SOL     OW21274   0.037   3.172  10.592
 3312SOL    HW121275   0.090   3.123  10.660
 3312SOL    HW221276   0.059   3.270  10.597
 3313SOL     OW21277   0.307   1.925   9.928
 3313SOL    HW121278   0.296   2.019   9.961
 3313SOL    HW221279   0.302   1.862  10.005
 3314SOL     OW21280   1.303   2.700   9.352
 3314SOL    HW121281   1.337   2.607   9.367
 3314SOL    HW221282   1.321   2.727   9.257
 3315SOL     OW21283   1.138   2.242  10.988
 3315SOL    HW121284   1.093   2.305  11.052
 3315SOL    HW221285   1.231   2.273  10.971
 3316SOL     OW21286   1.160   2.069  10.787
 3316SOL    HW121287   1.160   2.133  10.864
 3316SOL    HW221288   1.188   2.117  10.704
 3317SOL     OW21289   0.008   3.188   9.510
 3317SOL    HW121290  -0.085   3.209   9.479
 3317SOL    HW221291   0.018   3.089   9.523
 3318SOL     OW21292   0.088   3.663  10.237
 3318SOL    HW121293   0.046   3.577  10.210
 3318SOL    HW221294   0.182   3.666  10.203
 3319SOL     OW21295   0.189   2.382  11.032
 3319SOL    HW121296   0.248   2.342  10.962
 3319SOL    HW221297   0.131   2.453  10.991
 3320SOL     OW21298   0.815   2.434   9.635
 3320SOL    HW121299   0.822   2.345   9.589
 3320SOL    HW221300   0.721   2.468   9.627
 3321SOL     OW21301   0.473   2.362   9.501
 3321SOL    HW121302   0.534   2.442   9.505
 3321SOL    HW221303   0.378   2.393   9.508
 3322SOL     OW21304   1.302   2.717   9.619
 3322SOL    HW121305   1.216   2.686   9.661
 3322SOL    HW221306   1.298   2.703   9.520
 3323SOL     OW21307   0.688   3.524  11.026
 3323SOL    HW121308   0.632   3.605  11.035
 3323SOL    HW221309   0.740   3.528  10.940
 3324SOL     OW21310   1.726   1.997   9.833
 3324SOL    HW121311   1.799   1.980   9.766
 3324SOL    HW221312   1.695   1.910   9.871
 3325SOL     OW21313   1.388   3.435   9.787
 3325SOL    HW121314   1.455   3.447   9.713
 3325SOL    HW221315   1.348   3.524   9.810
 3326SOL     OW21316   0.672   3.478   9.464
 3326SOL    HW121317   0.681   3.488   9.365
 3326SOL    HW221318   0.632   3.389   9.485
 3327SOL     OW21319   0.263   2.188  10.030
 3327SOL    HW121320   0.184   2.239   9.996
 3327SOL    HW221321   0.254   2.173  10.128
 3328SOL     OW21322   1.194   3.474   9.341
 3328SOL    HW121323   1.200   3.381   9.378
 3328SOL    HW221324   1.135   3.474   9.261
 3329SOL     OW21325   0.822   2.864  10.682
 3329SOL    HW121326   0.862   2.863  10.590
 3329SOL    HW221327   0.832   2.956  10.722
 3330SOL     OW21328   0.916   2.772   9.601
 3330SOL    HW121329   0.979   2.810   9.533
 3330SOL    HW221330   0.956   2.689   9.640
 3331SOL     OW21331   1.504   3.469   9.354
 3331SOL    HW121332   1.412   3.506   9.361
 3331SOL    HW221333   1.542   3.489   9.264
 3332SOL     OW21334   1.039   2.960  10.006
 3332SOL    HW121335   0.969   2.913  10.060
 3332SOL    HW221336   1.098   2.892   9.963
 3333SOL     OW21337   1.709   2.247  10.691
 3333SOL    HW121338   1.782   2.316  10.695
 3333SOL    HW221339   1.737   2.172  10.632
 3334SOL     OW21340   0.255   3.210   9.600
 3334SOL    HW121341   0.159   3.211   9.573
 3334SOL    HW221342   0.267   3.263   9.684
 3335SOL     OW21343   0.105   2.875  11.036
 3335SOL    HW121344   0.028   2.842  11.090
 3335SOL    HW221345   0.190   2.845  11.078
 3336SOL     OW21346   0.075   2.207   9.343
 3336SOL    HW121347  -0.017   2.179   9.314
 3336SOL    HW221348   0.106   2.284   9.287
 3337SOL     OW21349   1.440   2.718  10.708
 3337SOL    HW121350   1.383   2.770  10.645
 3337SOL    HW221351   1.536   2.730  10.684
 3338SOL     OW21352   0.072   2.028   9.628
 3338SOL    HW121353   0.055   2.111   9.574
 3338SOL    HW221354   0.162   1.991   9.606
 3339SOL     OW21355   1.183   3.197   9.429
 3339SOL    HW121356   1.084   3.186   9.431
 3339SOL    HW221357   1.217   3.212   9.522
 3340SOL     OW21358   0.390   3.603  10.870
 3340SOL    HW121359   0.299   3.644  10.868
 3340SOL    HW221360   0.383   3.509  10.902
 3341SOL     OW21361   1.674   2.745  10.564
 3341SOL    HW121362   1.647   2.656  10.527
 3341SOL    HW221363   1.675   2.813  10.491
 3342SOL     OW21364   1.225   2.187   9.759
 3342SOL    HW121365   1.290   2.113   9.748
 3342SOL    HW221366   1.245   2.237   9.843
 3343SOL     OW21367   1.777   2.204  10.952
 3343SOL    HW121368   1.760   2.235  10.858
 3343SOL    HW221369   1.693   2.167  10.990
 3344SOL     OW21370   1.730   2.796  10.827
 3344SOL    HW121371   1.768   2.887  10.842
 3344SOL    HW221372   1.722   2.779  10.728
 3345SOL     OW21373   0.859   3.236   9.326
 3345SOL    HW121374   0.813   3.251   9.414
 3345SOL    HW221375   0.903   3.321   9.296
 3346SOL     OW21376   1.083   2.846   9.397
 3346SOL    HW121377   1.060   2.899   9.315
 3346SOL    HW221378   1.164   2.790   9.378
 3347SOL     OW21379   0.428   2.286   9.830
 3347SOL    HW121380   0.458   2.214   9.768
 3347SOL    HW221381   0.389   2.246   9.913
 3348SOL     OW21382   0.770   3.192   9.611
 3348SOL    HW121383   0.724   3.105   9.628
 3348SOL    HW221384   0.861   3.189   9.652
 3349SOL     OW21385   0.618   3.429  10.594
 3349SOL    HW121386   0.613   3.511  10.651
 3349SOL    HW221387   0.707   3.426  10.549
 3350SOL     OW21388   1.352   1.914   9.478
 3350SOL    HW121389   1.387   1.873   9.394
 3350SOL    HW221390   1.262   1.876   9.498
 3351SOL     OW21391   1.300   2.315  10.001
 3351SOL    HW121392   1.241   2.395  10.005
 3351SOL    HW221393   1.315   2.280  10.094
 3352SOL     OW21394   0.039   2.939   9.610
 3352SOL    HW121395   0.138   2.928   9.601
 3352SOL    HW221396  -0.001   2.853   9.642
 3353SOL     OW21397   0.225   2.137  12.168
 3353SOL    HW121398   0.260   2.120  12.260
 3353SOL    HW221399   0.137   2.092  12.156
 3354SOL     OW21400   0.569   3.137  12.337
 3354SOL    HW121401   0.476   3.130  12.300
 3354SOL    HW221402   0.580   3.226  12.381
 3355SOL     OW21403   0.685   2.874  11.837
 3355SOL    HW121404   0.754   2.858  11.907
 3355SOL    HW221405   0.612   2.931  11.875
 3356SOL     OW21406   0.686   3.023  12.975
 3356SOL    HW121407   0.746   3.102  12.989
 3356SOL    HW221408   0.600   3.054  12.934
 3357SOL     OW21409   0.335   3.297  12.233
 3357SOL    HW121410   0.257   3.266  12.180
 3357SOL    HW221411   0.393   3.355  12.176
 3358SOL     OW21412   1.460   3.367  12.511
 3358SOL    HW121413   1.484   3.461  12.537
 3358SOL    HW221414   1.444   3.313  12.593
 3359SOL     OW21415   0.438   2.254  12.671
 3359SOL    HW121416   0.520   2.198  12.680
 3359SOL    HW221417   0.357   2.196  12.675
 3360SOL     OW21418   1.603   2.309  11.909
 3360SOL    HW121419   1.529   2.355  11.859
 3360SOL    HW221420   1.654   2.377  11.962
 3361SOL     OW21421   0.620   3.648  12.611
 3361SOL    HW121422   0.528   3.631  12.646
 3361SOL    HW221423   0.648   3.740  12.637
 3362SOL     OW21424   1.842   3.629  11.531
 3362SOL    HW121425   1.896   3.600  11.611
 3362SOL    HW221426   1.872   3.719  11.502
 3363SOL     OW21427   1.689   2.784  11.784
 3363SOL    HW121428   1.784   2.755  11.792
 3363SOL    HW221429   1.681   2.849  11.709
 3364SOL     OW21430   0.613   3.227  11.898
 3364SOL    HW121431   0.564   3.140  11.907
 3364SOL    HW221432   0.590   3.270  11.811
 3365SOL     OW21433   1.293   3.090  12.595
 3365SOL    HW121434   1.330   3.017  12.537
 3365SOL    HW221435   1.345   3.095  12.680
 3366SOL     OW21436   0.809   1.866  11.674
 3366SOL    HW121437   0.849   1.957  11.665
 3366SOL    HW221438   0.709   1.874  11.680
 3367SOL     OW21439   0.317   2.113  12.973
 3367SOL    HW121440   0.388   2.184  12.979
 3367SOL    HW221441   0.229   2.152  13.001
 3368SOL     OW21442   1.667   3.576  11.744
 3368SOL    HW121443   1.626   3.553  11.656
 3368SOL    HW221444   1.649   3.502  11.809
 3369SOL     OW21445   1.281   2.207  12.116
 3369SOL    HW121446   1.195   2.157  12.103
 3369SOL    HW221447   1.343   2.153  12.172
 3370SOL     OW21448   1.576   3.524  11.479
 3370SOL    HW121449   1.665   3.570  11.482
 3370SOL    HW221450   1.555   3.500  11.384
 3371SOL     OW21451   1.394   2.331  12.846
 3371SOL    HW121452   1.374   2.374  12.934
 3371SOL    HW221453   1.472   2.269  12.855
 3372SOL     OW21454   0.076   2.673  11.961
 3372SOL    HW121455   0.175   2.661  11.970
 3372SOL    HW221456   0.052   2.768  11.982
 3373SOL     OW21457   1.795   2.928  12.045
 3373SOL    HW121458   1.733   2.913  11.969
 3373SOL    HW221459   1.743   2.939  12.130
 3374SOL     OW21460   0.321   2.805  11.414
 3374SOL    HW121461   0.403   2.844  11.372
 3374SOL    HW221462   0.294   2.723  11.365
 3375SOL     OW21463   1.458   2.597  11.900
 3375SOL    HW121464   1.453   2.532  11.975
 3375SOL    HW221465   1.538   2.656  11.913
 3376SOL     OW21466   0.461   3.128  12.899
 3376SOL    HW121467   0.411   3.129  12.813
 3376SOL    HW221468   0.398   3.110  12.975
 3377SOL     OW21469   0.249   3.647  12.413
 3377SOL    HW121470   0.306   3.582  12.463
 3377SOL    HW221471   0.233   3.614  12.320
 3378SOL     OW21472   0.781   2.126  12.921
 3378SOL    HW121473   0.848   2.065  12.964
 3378SOL    HW221474   0.708   2.145  12.986
 3379SOL     OW21475   0.539   1.926  11.684
 3379SOL    HW121476   0.458   1.927  11.742
 3379SOL    HW221477   0.542   2.009  11.629
 3380SOL     OW21478   0.297   1.897  11.343
 3380SOL    HW121479   0.346   1.981  11.322
 3380SOL    HW221480   0.359   1.832  11.388
 3381SOL     OW21481   0.459   3.014  11.913
 3381SOL    HW121482   0.388   2.987  11.978
 3381SOL    HW221483   0.433   2.986  11.820
 3382SOL     OW21484   0.561   2.084  12.319
 3382SOL    HW121485   0.599   2.000  12.356
 3382SOL    HW221486   0.473   2.103  12.363
 3383SOL     OW21487   1.466   2.452  12.164
 3383SOL    HW121488   1.436   2.357  12.171
 3383SOL    HW221489   1.539   2.468  12.230
 3384SOL     OW21490   1.857   2.695  11.549
 3384SOL    HW121491   1.899   2.631  11.613
 3384SOL    HW221492   1.819   2.644  11.471
 3385SOL     OW21493   1.664   3.142  11.829
 3385SOL    HW121494   1.763   3.150  11.843
 3385SOL    HW221495   1.619   3.226  11.860
 3386SOL     OW21496   0.527   2.118  11.500
 3386SOL    HW121497   0.554   2.059  11.425
 3386SOL    HW221498   0.527   2.213  11.469
 3387SOL     OW21499   1.592   3.491  12.797
 3387SOL    HW121500   1.619   3.525  12.707
 3387SOL    HW221501   1.671   3.453  12.843
 3388SOL     OW21502   0.980   2.978  12.891
 3388SOL    HW121503   0.881   2.984  12.901
 3388SOL    HW221504   1.003   2.898  12.835
 3389SOL     OW21505   0.410   2.675  12.423
 3389SOL    HW121506   0.496   2.687  12.473
 3389SOL    HW221507   0.368   2.588  12.450
 3390SOL     OW21508   0.367   2.962  11.673
 3390SOL    HW121509   0.360   3.045  11.617
 3390SOL    HW221510   0.371   2.882  11.613
 3391SOL     OW21511   1.272   3.307  12.314
 3391SOL    HW121512   1.319   3.320  12.401
 3391SOL    HW221513   1.206   3.233  12.323
 3392SOL     OW21514   0.354   3.372  12.501
 3392SOL    HW121515   0.333   3.328  12.414
 3392SOL    HW221516   0.451   3.398  12.504
 3393SOL     OW21517   0.402   2.613  12.770
 3393SOL    HW121518   0.470   2.668  12.723
 3393SOL    HW221519   0.442   2.525  12.797
 3394SOL     OW21520   1.587   2.641  12.842
 3394SOL    HW121521   1.495   2.679  12.837
 3394SOL    HW221522   1.647   2.688  12.777
 3395SOL     OW21523   1.013   1.967  12.942
 3395SOL    HW121524   1.019   2.052  12.890
 3395SOL    HW221525   1.045   1.891  12.885
 3396SOL     OW21526   0.504   1.912  12.912
 3396SOL    HW121527   0.462   1.855  12.842
 3396SOL    HW221528   0.438   1.981  12.944
 3397SOL     OW21529   0.307   2.075  12.403
 3397SOL    HW121530   0.284   2.112  12.493
 3397SOL    HW221531   0.277   1.980  12.397
 3398SOL     OW21532   0.732   2.496  12.236
 3398SOL    HW121533   0.791   2.470  12.160
 3398SOL    HW221534   0.704   2.592  12.225
 3399SOL     OW21535   1.728   2.797  13.026
 3399SOL    HW121536   1.682   2.790  12.937
 3399SOL    HW221537   1.666   2.841  13.092
 3400SOL     OW21538   0.307   1.925  11.790
 3400SOL    HW121539   0.296   2.019  11.823
 3400SOL    HW221540   0.302   1.862  11.867
 3401SOL     OW21541   0.350   2.760  12.976
 3401SOL    HW121542   0.426   2.804  13.024
 3401SOL    HW221543   0.385   2.713  12.894
 3402SOL     OW21544   0.088   3.663  12.099
 3402SOL    HW121545   0.046   3.577  12.072
 3402SOL    HW221546   0.182   3.666  12.065
 3403SOL     OW21547   0.504   3.430  12.082
 3403SOL    HW121548   0.570   3.504  12.091
 3403SOL    HW221549   0.548   3.351  12.040
 3404SOL     OW21550   1.369   2.812  12.832
 3404SOL    HW121551   1.408   2.901  12.852
 3404SOL    HW221552   1.379   2.792  12.735
 3405SOL     OW21553   0.671   2.326  12.441
 3405SOL    HW121554   0.637   2.237  12.411
 3405SOL    HW221555   0.697   2.380  12.361
 3406SOL     OW21556   0.159   2.999  12.638
 3406SOL    HW121557   0.181   2.938  12.714
 3406SOL    HW221558   0.169   2.950  12.552
 3407SOL     OW21559   1.759   3.609  12.326
 3407SOL    HW121560   1.820   3.639  12.253
 3407SOL    HW221561   1.721   3.520  12.304
 3408SOL     OW21562   1.252   3.593  12.300
 3408SOL    HW121563   1.336   3.598  12.246
 3408SOL    HW221564   1.229   3.497  12.318
 3409SOL     OW21565   1.388   3.435  11.649
 3409SOL    HW121566   1.455   3.447  11.575
 3409SOL    HW221567   1.348   3.524  11.672
 3410SOL     OW21568   1.650   3.582  12.566
 3410SOL    HW121569   1.703   3.592  12.482
 3410SOL    HW221570   1.623   3.672  12.600
 3411SOL     OW21571   1.504   3.469  11.216
 3411SOL    HW121572   1.412   3.506  11.223
 3411SOL    HW221573   1.542   3.489  11.126
 3412SOL     OW21574   0.372   3.150  12.662
 3412SOL    HW121575   0.359   3.243  12.628
 3412SOL    HW221576   0.288   3.098  12.649
 3413SOL     OW21577   1.614   3.154  12.461
 3413SOL    HW121578   1.674   3.157  12.541
 3413SOL    HW221579   1.539   3.218  12.474
 3414SOL     OW21580   0.105   2.875  12.898
 3414SOL    HW121581   0.028   2.842  12.952
 3414SOL    HW221582   0.190   2.845  12.940
 3415SOL     OW21583   0.672   2.065  12.661
 3415SOL    HW121584   0.762   2.049  12.621
 3415SOL    HW221585   0.680   2.070  12.760
 3416SOL     OW21586   0.075   2.207  11.205
 3416SOL    HW121587  -0.017   2.179  11.176
 3416SOL    HW221588   0.106   2.284  11.149
 3417SOL     OW21589   0.613   2.704  12.603
 3417SOL    HW121590   0.669   2.785  12.586
 3417SOL    HW221591   0.672   2.624  12.606
 3418SOL     OW21592   1.493   3.629  12.131
 3418SOL    HW121593   1.526   3.693  12.062
 3418SOL    HW221594   1.559   3.623  12.206
 3419SOL     OW21595   0.716   2.427  12.880
 3419SOL    HW121596   0.735   2.492  12.954
 3419SOL    HW221597   0.776   2.347  12.889
 3420SOL     OW21598   0.390   3.603  12.732
 3420SOL    HW121599   0.299   3.644  12.730
 3420SOL    HW221600   0.383   3.509  12.764
 3421SOL     OW21601   1.674   2.745  12.426
 3421SOL    HW121602   1.647   2.656  12.389
 3421SOL    HW221603   1.675   2.813  12.353
 3422SOL     OW21604   0.594   2.607  11.824
 3422SOL    HW121605   0.644   2.692  11.805
 3422SOL    HW221606   0.506   2.609  11.776
 3423SOL     OW21607   1.861   3.431  12.023
 3423SOL    HW121608   1.790   3.419  11.953
 3423SOL    HW221609   1.862   3.352  12.083
 3424SOL     OW21610   0.079   3.102  11.825
 3424SOL    HW121611   0.078   3.055  11.913
 3424SOL    HW221612   0.161   3.074  11.774
 3425SOL     OW21613   1.705   3.349  12.276
 3425SOL    HW121614   1.612   3.324  12.249
 3425SOL    HW221615   1.731   3.299  12.358
 3426SOL     OW21616   0.812   3.448  11.859
 3426SOL    HW121617   0.844   3.458  11.765
 3426SOL    HW221618   0.733   3.386  11.861
 3427SOL     OW21619   1.424   2.076  12.284
 3427SOL    HW121620   1.476   2.011  12.339
 3427SOL    HW221621   1.375   2.139  12.345
 3428SOL     OW21622   1.300   2.315  11.863
 3428SOL    HW121623   1.241   2.395  11.867
 3428SOL    HW221624   1.315   2.280  11.956
 3429SOL     OW21625   0.039   2.939  11.472
 3429SOL    HW121626   0.138   2.928  11.463
 3429SOL    HW221627  -0.001   2.853  11.504
 3430SOL     OW21628   0.230   2.490  13.147
 3430SOL    HW121629   0.137   2.488  13.184
 3430SOL    HW221630   0.231   2.451  13.055
 3431SOL     OW21631   0.768   3.006  14.057
 3431SOL    HW121632   0.690   3.023  14.117
 3431SOL    HW221633   0.802   3.093  14.021
 3432SOL     OW21634   1.127   3.203  14.724
 3432SOL    HW121635   1.174   3.203  14.812
 3432SOL    HW221636   1.079   3.116  14.713
 3433SOL     OW21637   0.606   2.826  13.157
 3433SOL    HW121638   0.613   2.910  13.103
 3433SOL    HW221639   0.652   2.839  13.245
 3434SOL     OW21640   1.842   3.629  13.393
 3434SOL    HW121641   1.896   3.600  13.473
 3434SOL    HW221642   1.872   3.719  13.364
 3435SOL     OW21643   0.809   1.866  13.536
 3435SOL    HW121644   0.849   1.957  13.527
 3435SOL    HW221645   0.709   1.874  13.542
 3436SOL     OW21646   1.187   3.654  14.650
 3436SOL    HW121647   1.211   3.714  14.574
 3436SOL    HW221648   1.194   3.559  14.620
 3437SOL     OW21649   0.598   2.591  13.304
 3437SOL    HW121650   0.622   2.660  13.236
 3437SOL    HW221651   0.520   2.624  13.358
 3438SOL     OW21652   1.576   3.524  13.341
 3438SOL    HW121653   1.665   3.570  13.344
 3438SOL    HW221654   1.555   3.500  13.246
 3439SOL     OW21655   1.394   2.331  14.708
 3439SOL    HW121656   1.374   2.374  14.796
 3439SOL    HW221657   1.472   2.269  14.717
 3440SOL     OW21658   0.973   2.752  14.606
 3440SOL    HW121659   1.019   2.668  14.577
 3440SOL    HW221660   0.917   2.786  14.531
 3441SOL     OW21661   1.719   2.447  14.865
 3441SOL    HW121662   1.693   2.536  14.829
 3441SOL    HW221663   1.717   2.379  14.792
 3442SOL     OW21664   0.550   2.058  13.919
 3442SOL    HW121665   0.545   2.053  14.019
 3442SOL    HW221666   0.552   2.154  13.890
 3443SOL     OW21667   0.321   2.805  13.276
 3443SOL    HW121668   0.403   2.844  13.234
 3443SOL    HW221669   0.294   2.723  13.227
 3444SOL     OW21670   0.249   3.647  14.275
 3444SOL    HW121671   0.306   3.582  14.325
 3444SOL    HW221672   0.233   3.614  14.182
 3445SOL     OW21673   0.940   3.560  13.938
 3445SOL    HW121674   1.020   3.503  13.959
 3445SOL    HW221675   0.891   3.520  13.861
 3446SOL     OW21676   0.614   1.984  13.151
 3446SOL    HW121677   0.712   1.962  13.158
 3446SOL    HW221678   0.583   1.967  13.058
 3447SOL     OW21679   0.888   3.376  14.229
 3447SOL    HW121680   0.865   3.351  14.135
 3447SOL    HW221681   0.949   3.307  14.268
 3448SOL     OW21682   0.539   1.926  13.546
 3448SOL    HW121683   0.458   1.927  13.604
 3448SOL    HW221684   0.542   2.009  13.491
 3449SOL     OW21685   1.434   3.050  13.075
 3449SOL    HW121686   1.466   2.974  13.132
 3449SOL    HW221687   1.342   3.077  13.105
 3450SOL     OW21688   0.297   1.897  13.205
 3450SOL    HW121689   0.346   1.981  13.184
 3450SOL    HW221690   0.359   1.832  13.250
 3451SOL     OW21691   1.076   2.545  14.498
 3451SOL    HW121692   0.996   2.484  14.501
 3451SOL    HW221693   1.157   2.492  14.474
 3452SOL     OW21694   1.227   3.432  13.827
 3452SOL    HW121695   1.248   3.506  13.762
 3452SOL    HW221696   1.295   3.432  13.900
 3453SOL     OW21697   0.078   2.418  14.420
 3453SOL    HW121698   0.170   2.417  14.379
 3453SOL    HW221699   0.072   2.492  14.487
 3454SOL     OW21700   1.017   1.901  13.787
 3454SOL    HW121701   0.945   1.906  13.718
 3454SOL    HW221702   0.993   1.832  13.856
 3455SOL     OW21703   1.429   3.035  13.901
 3455SOL    HW121704   1.374   2.951  13.894
 3455SOL    HW221705   1.455   3.064  13.809
 3456SOL     OW21706   0.488   3.247  13.208
 3456SOL    HW121707   0.401   3.232  13.255
 3456SOL    HW221708   0.471   3.273  13.113
 3457SOL     OW21709   0.527   2.118  13.362
 3457SOL    HW121710   0.554   2.059  13.287
 3457SOL    HW221711   0.527   2.213  13.331
 3458SOL     OW21712   1.064   3.209  14.374
 3458SOL    HW121713   0.984   3.186  14.429
 3458SOL    HW221714   1.147   3.183  14.423
 3459SOL     OW21715   0.705   2.912  13.402
 3459SOL    HW121716   0.691   2.919  13.501
 3459SOL    HW221717   0.789   2.861  13.384
 3460SOL     OW21718   1.274   2.248  14.296
 3460SOL    HW121719   1.295   2.322  14.360
 3460SOL    HW221720   1.185   2.265  14.253
 3461SOL     OW21721   0.064   3.426  14.365
 3461SOL    HW121722   0.018   3.508  14.331
 3461SOL    HW221723   0.162   3.445  14.374
 3462SOL     OW21724   1.272   3.307  14.176
 3462SOL    HW121725   1.319   3.320  14.263
 3462SOL    HW221726   1.206   3.233  14.185
 3463SOL     OW21727   1.582   2.501  13.506
 3463SOL    HW121728   1.551   2.562  13.579
 3463SOL    HW221729   1.632   2.553  13.437
 3464SOL     OW21730   0.354   3.372  14.363
 3464SOL    HW121731   0.333   3.328  14.276
 3464SOL    HW221732   0.451   3.398  14.366
 3465SOL     OW21733   1.587   2.641  14.704
 3465SOL    HW121734   1.495   2.679  14.699
 3465SOL    HW221735   1.647   2.688  14.639
 3466SOL     OW21736   0.504   1.912  14.774
 3466SOL    HW121737   0.462   1.855  14.704
 3466SOL    HW221738   0.438   1.981  14.806
 3467SOL     OW21739   0.037   3.172  14.316
 3467SOL    HW121740   0.090   3.123  14.384
 3467SOL    HW221741   0.059   3.270  14.321
 3468SOL     OW21742   0.307   1.925  13.652
 3468SOL    HW121743   0.296   2.019  13.685
 3468SOL    HW221744   0.302   1.862  13.729
 3469SOL     OW21745   1.068   3.195  13.883
 3469SOL    HW121746   1.075   3.111  13.828
 3469SOL    HW221747   1.130   3.264  13.847
 3470SOL     OW21748   1.138   2.242  14.712
 3470SOL    HW121749   1.093   2.305  14.776
 3470SOL    HW221750   1.231   2.273  14.695
 3471SOL     OW21751   0.252   3.426  14.778
 3471SOL    HW121752   0.222   3.483  14.854
 3471SOL    HW221753   0.245   3.329  14.804
 3472SOL     OW21754   0.473   2.362  13.225
 3472SOL    HW121755   0.534   2.442  13.229
 3472SOL    HW221756   0.378   2.393  13.232
 3473SOL     OW21757   1.759   3.609  14.188
 3473SOL    HW121758   1.820   3.639  14.115
 3473SOL    HW221759   1.721   3.520  14.166
 3474SOL     OW21760   1.252   3.593  14.162
 3474SOL    HW121761   1.336   3.598  14.108
 3474SOL    HW221762   1.229   3.497  14.180
 3475SOL     OW21763   0.083   3.120  14.056
 3475SOL    HW121764   0.078   3.119  14.156
 3475SOL    HW221765   0.000   3.079  14.018
 3476SOL     OW21766   1.726   1.997  13.557
 3476SOL    HW121767   1.799   1.980  13.490
 3476SOL    HW221768   1.695   1.910  13.595
 3477SOL     OW21769   0.130   3.656  14.885
 3477SOL    HW121770   0.089   3.582  14.938
 3477SOL    HW221771   0.194   3.707  14.943
 3478SOL     OW21772   0.255   3.210  13.324
 3478SOL    HW121773   0.159   3.211  13.297
 3478SOL    HW221774   0.267   3.263  13.408
 3479SOL     OW21775   0.075   2.207  13.067
 3479SOL    HW121776  -0.017   2.179  13.038
 3479SOL    HW221777   0.106   2.284  13.011
 3480SOL     OW21778   0.072   2.028  13.352
 3480SOL    HW121779   0.055   2.111  13.298
 3480SOL    HW221780   0.162   1.991  13.330
 3481SOL     OW21781   1.183   3.197  13.153
 3481SOL    HW121782   1.084   3.186  13.155
 3481SOL    HW221783   1.217   3.212  13.246
 3482SOL     OW21784   0.613   2.704  14.465
 3482SOL    HW121785   0.669   2.785  14.448
 3482SOL    HW221786   0.672   2.624  14.468
 3483SOL     OW21787   0.390   3.603  14.594
 3483SOL    HW121788   0.299   3.644  14.592
 3483SOL    HW221789   0.383   3.509  14.626
 3484SOL     OW21790   0.594   2.607  13.686
 3484SOL    HW121791   0.644   2.692  13.667
 3484SOL    HW221792   0.506   2.609  13.638
 3485SOL     OW21793   0.221   3.176  14.878
 3485SOL    HW121794   0.156   3.103  14.857
 3485SOL    HW221795   0.225   3.190  14.976
 3486SOL     OW21796   0.019   2.230  15.543
 3486SOL    HW121797  -0.063   2.273  15.582
 3486SOL    HW221798  -0.009   2.157  15.480
 3487SOL     OW21799   0.569   3.137  16.062
 3487SOL    HW121800   0.476   3.130  16.025
 3487SOL    HW221801   0.580   3.226  16.106
 3488SOL     OW21802   1.555   3.373  15.599
 3488SOL    HW121803   1.498   3.357  15.680
 3488SOL    HW221804   1.496   3.383  15.519
 3489SOL     OW21805   1.135   2.565  15.613
 3489SOL    HW121806   1.192   2.643  15.588
 3489SOL    HW221807   1.075   2.591  15.689
 3490SOL     OW21808   0.850   2.660  16.720
 3490SOL    HW121809   0.846   2.736  16.785
 3490SOL    HW221810   0.872   2.696  16.629
 3491SOL     OW21811   0.335   3.297  15.958
 3491SOL    HW121812   0.257   3.266  15.905
 3491SOL    HW221813   0.393   3.355  15.901
 3492SOL     OW21814   1.127   3.203  16.587
 3492SOL    HW121815   1.174   3.203  16.675
 3492SOL    HW221816   1.079   3.116  16.576
 3493SOL     OW21817   0.122   2.505  15.459
 3493SOL    HW121818   0.077   2.417  15.476
 3493SOL    HW221819   0.121   2.559  15.543
 3494SOL     OW21820   0.113   2.599  16.494
 3494SOL    HW121821   0.201   2.586  16.539
 3494SOL    HW221822   0.100   2.696  16.472
 3495SOL     OW21823   0.613   3.227  15.622
 3495SOL    HW121824   0.564   3.140  15.631
 3495SOL    HW221825   0.590   3.270  15.535
 3496SOL     OW21826   0.197   2.838  16.161
 3496SOL    HW121827   0.286   2.793  16.147
 3496SOL    HW221828   0.124   2.773  16.142
 3497SOL     OW21829   0.317   2.113  16.698
 3497SOL    HW121830   0.388   2.184  16.704
 3497SOL    HW221831   0.229   2.152  16.726
 3498SOL     OW21832   1.667   3.576  15.468
 3498SOL    HW121833   1.626   3.553  15.380
 3498SOL    HW221834   1.649   3.502  15.533
 3499SOL     OW21835   1.281   2.207  15.841
 3499SOL    HW121836   1.195   2.157  15.828
 3499SOL    HW221837   1.343   2.153  15.897
 3500SOL     OW21838   0.130   3.683  16.468
 3500SOL    HW121839   0.120   3.668  16.567
 3500SOL    HW221840   0.044   3.719  16.432
 3501SOL     OW21841   1.795   2.928  15.769
 3501SOL    HW121842   1.733   2.913  15.693
 3501SOL    HW221843   1.743   2.939  15.854
 3502SOL     OW21844   0.464   3.605  15.219
 3502SOL    HW121845   0.497   3.644  15.305
 3502SOL    HW221846   0.540   3.598  15.154
 3503SOL     OW21847   0.249   3.647  16.138
 3503SOL    HW121848   0.306   3.582  16.188
 3503SOL    HW221849   0.233   3.614  16.045
 3504SOL     OW21850   0.382   2.562  15.376
 3504SOL    HW121851   0.427   2.472  15.373
 3504SOL    HW221852   0.288   2.551  15.409
 3505SOL     OW21853   0.614   1.984  15.013
 3505SOL    HW121854   0.712   1.962  15.020
 3505SOL    HW221855   0.583   1.967  14.920
 3506SOL     OW21856   0.888   3.376  16.092
 3506SOL    HW121857   0.865   3.351  15.998
 3506SOL    HW221858   0.949   3.307  16.131
 3507SOL     OW21859   0.922   2.365  15.795
 3507SOL    HW121860   0.897   2.356  15.699
 3507SOL    HW221861   0.970   2.283  15.826
 3508SOL     OW21862   0.539   1.926  15.408
 3508SOL    HW121863   0.458   1.927  15.466
 3508SOL    HW221864   0.542   2.009  15.353
 3509SOL     OW21865   0.297   1.897  15.067
 3509SOL    HW121866   0.346   1.981  15.046
 3509SOL    HW221867   0.359   1.832  15.112
 3510SOL     OW21868   1.271   3.659  15.487
 3510SOL    HW121869   1.315   3.723  15.423
 3510SOL    HW221870   1.221   3.711  15.557
 3511SOL     OW21871   0.078   2.418  16.283
 3511SOL    HW121872   0.170   2.417  16.242
 3511SOL    HW221873   0.072   2.492  16.350
 3512SOL     OW21874   0.866   2.316  15.538
 3512SOL    HW121875   0.834   2.388  15.476
 3512SOL    HW221876   0.890   2.235  15.485
 3513SOL     OW21877   1.429   3.035  15.763
 3513SOL    HW121878   1.374   2.951  15.756
 3513SOL    HW221879   1.455   3.064  15.671
 3514SOL     OW21880   1.466   2.452  15.889
 3514SOL    HW121881   1.436   2.357  15.896
 3514SOL    HW221882   1.539   2.468  15.955
 3515SOL     OW21883   0.488   3.247  15.070
 3515SOL    HW121884   0.401   3.232  15.117
 3515SOL    HW221885   0.471   3.273  14.975
 3516SOL     OW21886   1.592   3.491  16.522
 3516SOL    HW121887   1.619   3.525  16.432
 3516SOL    HW221888   1.671   3.453  16.568
 3517SOL     OW21889   1.638   2.961  15.976
 3517SOL    HW121890   1.643   3.042  16.035
 3517SOL    HW221891   1.552   2.963  15.925
 3518SOL     OW21892   0.410   2.675  16.148
 3518SOL    HW121893   0.496   2.687  16.198
 3518SOL    HW221894   0.368   2.588  16.175
 3519SOL     OW21895   1.274   2.248  16.159
 3519SOL    HW121896   1.295   2.322  16.223
 3519SOL    HW221897   1.185   2.265  16.116
 3520SOL     OW21898   0.367   2.962  15.397
 3520SOL    HW121899   0.360   3.045  15.341
 3520SOL    HW221900   0.371   2.882  15.337
 3521SOL     OW21901   0.566   2.399  15.761
 3521SOL    HW121902   0.578   2.465  15.687
 3521SOL    HW221903   0.612   2.433  15.844
 3522SOL     OW21904   0.354   3.372  16.226
 3522SOL    HW121905   0.333   3.328  16.139
 3522SOL    HW221906   0.451   3.398  16.229
 3523SOL     OW21907   0.402   2.613  16.495
 3523SOL    HW121908   0.470   2.668  16.448
 3523SOL    HW221909   0.442   2.525  16.522
 3524SOL     OW21910   0.350   2.760  16.701
 3524SOL    HW121911   0.426   2.804  16.749
 3524SOL    HW221912   0.385   2.713  16.619
 3525SOL     OW21913   1.160   2.069  16.374
 3525SOL    HW121914   1.160   2.133  16.451
 3525SOL    HW221915   1.188   2.117  16.291
 3526SOL     OW21916   0.504   3.430  15.806
 3526SOL    HW121917   0.570   3.504  15.815
 3526SOL    HW221918   0.548   3.351  15.764
 3527SOL     OW21919   0.189   2.382  16.619
 3527SOL    HW121920   0.248   2.342  16.549
 3527SOL    HW221921   0.131   2.453  16.578
 3528SOL     OW21922   1.657   2.466  16.103
 3528SOL    HW121923   1.619   2.397  16.165
 3528SOL    HW221924   1.739   2.430  16.059
 3529SOL     OW21925   0.252   3.426  16.641
 3529SOL    HW121926   0.222   3.483  16.717
 3529SOL    HW221927   0.245   3.329  16.667
 3530SOL     OW21928   0.671   2.326  16.166
 3530SOL    HW121929   0.637   2.237  16.136
 3530SOL    HW221930   0.697   2.380  16.086
 3531SOL     OW21931   0.159   2.999  16.363
 3531SOL    HW121932   0.181   2.938  16.439
 3531SOL    HW221933   0.169   2.950  16.277
 3532SOL     OW21934   1.347   2.921  16.131
 3532SOL    HW121935   1.371   2.858  16.057
 3532SOL    HW221936   1.257   2.961  16.113
 3533SOL     OW21937   0.083   3.120  15.919
 3533SOL    HW121938   0.078   3.119  16.019
 3533SOL    HW221939   0.000   3.079  15.881
 3534SOL     OW21940   1.388   3.435  15.373
 3534SOL    HW121941   1.455   3.447  15.299
 3534SOL    HW221942   1.348   3.524  15.396
 3535SOL     OW21943   0.130   3.656  16.748
 3535SOL    HW121944   0.089   3.582  16.801
 3535SOL    HW221945   0.194   3.707  16.806
 3536SOL     OW21946   0.263   2.188  15.616
 3536SOL    HW121947   0.184   2.239  15.582
 3536SOL    HW221948   0.254   2.173  15.714
 3537SOL     OW21949   0.372   3.150  16.387
 3537SOL    HW121950   0.359   3.243  16.353
 3537SOL    HW221951   0.288   3.098  16.374
 3538SOL     OW21952   1.614   3.154  16.186
 3538SOL    HW121953   1.674   3.157  16.266
 3538SOL    HW221954   1.539   3.218  16.199
 3539SOL     OW21955   1.014   2.098  15.868
 3539SOL    HW121956   1.006   2.062  15.775
 3539SOL    HW221957   1.012   2.022  15.933
 3540SOL     OW21958   1.709   2.247  16.278
 3540SOL    HW121959   1.782   2.316  16.282
 3540SOL    HW221960   1.737   2.172  16.219
 3541SOL     OW21961   0.255   3.210  15.186
 3541SOL    HW121962   0.159   3.211  15.159
 3541SOL    HW221963   0.267   3.263  15.270
 3542SOL     OW21964   0.105   2.875  16.623
 3542SOL    HW121965   0.028   2.842  16.677
 3542SOL    HW221966   0.190   2.845  16.665
 3543SOL     OW21967   0.672   2.065  16.386
 3543SOL    HW121968   0.762   2.049  16.346
 3543SOL    HW221969   0.680   2.070  16.485
 3544SOL     OW21970   1.440   2.718  16.295
 3544SOL    HW121971   1.383   2.770  16.232
 3544SOL    HW221972   1.536   2.730  16.271
 3545SOL     OW21973   0.072   2.028  15.214
 3545SOL    HW121974   0.055   2.111  15.160
 3545SOL    HW221975   0.162   1.991  15.192
 3546SOL     OW21976   1.183   3.197  15.015
 3546SOL    HW121977   1.084   3.186  15.017
 3546SOL    HW221978   1.217   3.212  15.108
 3547SOL     OW21979   0.613   2.704  16.328
 3547SOL    HW121980   0.669   2.785  16.311
 3547SOL    HW221981   0.672   2.624  16.331
 3548SOL     OW21982   0.716   2.427  16.605
 3548SOL    HW121983   0.735   2.492  16.679
 3548SOL    HW221984   0.776   2.347  16.614
 3549SOL     OW21985   0.390   3.603  16.457
 3549SOL    HW121986   0.299   3.644  16.455
 3549SOL    HW221987   0.383   3.509  16.489
 3550SOL     OW21988   0.594   2.607  15.548
 3550SOL    HW121989   0.644   2.692  15.529
 3550SOL    HW221990   0.506   2.609  15.500
 3551SOL     OW21991   1.777   2.204  16.539
 3551SOL    HW121992   1.760   2.235  16.445
 3551SOL    HW221993   1.693   2.167  16.577
 3552SOL     OW21994   0.661   3.652  15.850
 3552SOL    HW121995   0.615   3.740  15.837
 3552SOL    HW221996   0.760   3.664  15.843
 3553SOL     OW21997   0.221   3.176  16.741
 3553SOL    HW121998   0.156   3.103  16.720
 3553SOL    HW221999   0.225   3.190  16.839
 3554SOL     OW22000   0.079   3.102  15.549
 3554SOL    HW122001   0.078   3.055  15.637
 3554SOL    HW222002   0.161   3.074  15.498
 3555SOL     OW22003   1.824   2.054  16.124
 3555SOL    HW122004   1.820   1.964  16.168
 3555SOL    HW222005   1.827   2.043  16.025
 3556SOL     OW22006   0.428   2.286  15.416
 3556SOL    HW122007   0.458   2.214  15.354
 3556SOL    HW222008   0.389   2.246  15.499
 3557SOL     OW22009   1.424   2.076  16.009
 3557SOL    HW122010   1.476   2.011  16.064
 3557SOL    HW222011   1.375   2.139  16.070
 3558SOL     OW22012   1.001   1.896  16.051
 3558SOL    HW122013   0.938   1.824  16.020
 3558SOL    HW222014   1.094   1.860  16.051
 3559SOL     OW22015   0.618   3.429  16.181
 3559SOL    HW122016   0.613   3.511  16.238
 3559SOL    HW222017   0.707   3.426  16.136
 3560SOL     OW22018   0.039   2.939  15.196
 3560SOL    HW122019   0.138   2.928  15.187
 3560SOL    HW222020  -0.001   2.853  15.228
 3561SOL     OW22021   0.875   3.508  15.233
 3561SOL    HW122022   0.798   3.473  15.179
 3561SOL    HW222023   0.843   3.579  15.295
 3562SOL     OW22024   0.230   2.490  16.872
 3562SOL    HW122025   0.137   2.488  16.909
 3562SOL    HW222026   0.231   2.451  16.780
 3563SOL     OW22027   0.019   2.230  17.406
 3563SOL    HW122028  -0.063   2.273  17.445
 3563SOL    HW222029  -0.009   2.157  17.343
 3564SOL     OW22030   0.768   3.006  17.782
 3564SOL    HW122031   0.690   3.023  17.842
 3564SOL    HW222032   0.802   3.093  17.746
 3565SOL     OW22033   0.122   2.505  17.322
 3565SOL    HW122034   0.077   2.417  17.339
 3565SOL    HW222035   0.121   2.559  17.406
 3566SOL     OW22036   1.689   2.784  17.371
 3566SOL    HW122037   1.784   2.755  17.379
 3566SOL    HW222038   1.681   2.849  17.296
 3567SOL     OW22039   1.641   2.970  17.191
 3567SOL    HW122040   1.727   2.972  17.139
 3567SOL    HW222041   1.655   3.017  17.279
 3568SOL     OW22042   0.613   3.227  17.485
 3568SOL    HW122043   0.564   3.140  17.494
 3568SOL    HW222044   0.590   3.270  17.398
 3569SOL     OW22045   0.197   2.838  18.023
 3569SOL    HW122046   0.286   2.793  18.009
 3569SOL    HW222047   0.124   2.773  18.004
 3570SOL     OW22048   1.466   3.279  17.712
 3570SOL    HW122049   1.407   3.285  17.792
 3570SOL    HW222050   1.451   3.191  17.666
 3571SOL     OW22051   1.667   3.576  17.331
 3571SOL    HW122052   1.626   3.553  17.243
 3571SOL    HW222053   1.649   3.502  17.396
 3572SOL     OW22054   1.041   2.563  17.188
 3572SOL    HW122055   1.067   2.559  17.284
 3572SOL    HW222056   0.956   2.512  17.174
 3573SOL     OW22057   1.795   2.928  17.632
 3573SOL    HW122058   1.733   2.913  17.556
 3573SOL    HW222059   1.743   2.939  17.717
 3574SOL     OW22060   0.321   2.805  17.001
 3574SOL    HW122061   0.403   2.844  16.959
 3574SOL    HW222062   0.294   2.723  16.952
 3575SOL     OW22063   1.400   1.969  17.185
 3575SOL    HW122064   1.376   1.932  17.095
 3575SOL    HW222065   1.499   1.985  17.189
 3576SOL     OW22066   0.297   1.897  16.930
 3576SOL    HW122067   0.346   1.981  16.909
 3576SOL    HW222068   0.359   1.832  16.975
 3577SOL     OW22069   1.032   2.411  16.775
 3577SOL    HW122070   0.991   2.493  16.736
 3577SOL    HW222071   1.096   2.437  16.848
 3578SOL     OW22072   1.429   3.035  17.626
 3578SOL    HW122073   1.374   2.951  17.619
 3578SOL    HW222074   1.455   3.064  17.534
 3579SOL     OW22075   1.664   3.142  17.416
 3579SOL    HW122076   1.763   3.150  17.430
 3579SOL    HW222077   1.619   3.226  17.447
 3580SOL     OW22078   1.390   2.437  16.837
 3580SOL    HW122079   1.336   2.416  16.918
 3580SOL    HW222080   1.481   2.396  16.846
 3581SOL     OW22081   1.638   2.961  17.838
 3581SOL    HW122082   1.643   3.042  17.897
 3581SOL    HW222083   1.552   2.963  17.787
 3582SOL     OW22084   0.410   2.675  18.010
 3582SOL    HW122085   0.496   2.687  18.060
 3582SOL    HW222086   0.368   2.588  18.037
 3583SOL     OW22087   0.566   2.399  17.624
 3583SOL    HW122088   0.578   2.465  17.550
 3583SOL    HW222089   0.612   2.433  17.707
 3584SOL     OW22090   0.573   2.732  17.788
 3584SOL    HW122091   0.617   2.821  17.779
 3584SOL    HW222092   0.510   2.732  17.865
 3585SOL     OW22093   1.209   2.387  17.034
 3585SOL    HW122094   1.222   2.303  17.088
 3585SOL    HW222095   1.180   2.461  17.094
 3586SOL     OW22096   0.339   2.371  17.765
 3586SOL    HW122097   0.287   2.288  17.748
 3586SOL    HW222098   0.416   2.376  17.701
 3587SOL     OW22099   0.008   3.188  16.959
 3587SOL    HW122100  -0.085   3.209  16.928
 3587SOL    HW222101   0.018   3.089  16.972
 3588SOL     OW22102   0.504   3.430  17.669
 3588SOL    HW122103   0.570   3.504  17.678
 3588SOL    HW222104   0.548   3.351  17.627
 3589SOL     OW22105   0.815   2.434  17.084
 3589SOL    HW122106   0.822   2.345  17.038
 3589SOL    HW222107   0.721   2.468  17.076
 3590SOL     OW22108   0.671   2.326  18.028
 3590SOL    HW122109   0.637   2.237  17.998
 3590SOL    HW222110   0.697   2.380  17.948
 3591SOL     OW22111   1.302   2.717  17.068
 3591SOL    HW122112   1.216   2.686  17.110
 3591SOL    HW222113   1.298   2.703  16.969
 3592SOL     OW22114   1.759   3.609  17.913
 3592SOL    HW122115   1.820   3.639  17.840
 3592SOL    HW222116   1.721   3.520  17.891
 3593SOL     OW22117   0.083   3.120  17.781
 3593SOL    HW122118   0.078   3.119  17.881
 3593SOL    HW222119   0.000   3.079  17.743
 3594SOL     OW22120   1.726   1.997  17.282
 3594SOL    HW122121   1.799   1.980  17.215
 3594SOL    HW222122   1.695   1.910  17.320
 3595SOL     OW22123   0.263   2.188  17.479
 3595SOL    HW122124   0.184   2.239  17.445
 3595SOL    HW222125   0.254   2.173  17.577
 3596SOL     OW22126   0.822   2.864  18.131
 3596SOL    HW122127   0.862   2.863  18.039
 3596SOL    HW222128   0.832   2.956  18.171
 3597SOL     OW22129   1.504   3.469  16.803
 3597SOL    HW122130   1.412   3.506  16.810
 3597SOL    HW222131   1.542   3.489  16.713
 3598SOL     OW22132   0.590   3.349  17.250
 3598SOL    HW122133   0.632   3.291  17.180
 3598SOL    HW222134   0.546   3.428  17.206
 3599SOL     OW22135   0.072   2.028  17.077
 3599SOL    HW122136   0.055   2.111  17.023
 3599SOL    HW222137   0.162   1.991  17.055
 3600SOL     OW22138   1.493   3.629  17.718
 3600SOL    HW122139   1.526   3.693  17.649
 3600SOL    HW222140   1.559   3.623  17.793
 3601SOL     OW22141   1.674   2.745  18.013
 3601SOL    HW122142   1.647   2.656  17.976
 3601SOL    HW222143   1.675   2.813  17.940
 3602SOL     OW22144   1.861   3.431  17.610
 3602SOL    HW122145   1.790   3.419  17.540
 3602SOL    HW222146   1.862   3.352  17.670
 3603SOL     OW22147   1.705   3.349  17.863
 3603SOL    HW122148   1.612   3.324  17.836
 3603SOL    HW222149   1.731   3.299  17.945
 3604SOL     OW22150   1.352   1.914  16.927
 3604SOL    HW122151   1.387   1.873  16.843
 3604SOL    HW222152   1.262   1.876  16.947
 3605SOL     OW22153   1.135   4.427   0.717
 3605SOL    HW122154   1.192   4.505   0.692
 3605SOL    HW222155   1.075   4.453   0.793
 3606SOL     OW22156   1.755   4.331   0.231
 3606SOL    HW122157   1.743   4.318   0.132
 3606SOL    HW222158   1.725   4.250   0.280
 3607SOL     OW22159   0.768   4.868   1.023
 3607SOL    HW122160   0.690   4.885   1.083
 3607SOL    HW222161   0.802   4.955   0.987
 3608SOL     OW22162   0.850   4.522   1.823
 3608SOL    HW122163   0.846   4.598   1.888
 3608SOL    HW222164   0.872   4.558   1.732
 3609SOL     OW22165   0.685   4.736   0.665
 3609SOL    HW122166   0.754   4.720   0.735
 3609SOL    HW222167   0.612   4.793   0.703
 3610SOL     OW22168   1.603   4.171   0.737
 3610SOL    HW122169   1.529   4.217   0.687
 3610SOL    HW222170   1.654   4.239   0.790
 3611SOL     OW22171   1.594   3.838   1.480
 3611SOL    HW122172   1.576   3.905   1.408
 3611SOL    HW222173   1.591   3.884   1.569
 3612SOL     OW22174   0.598   4.453   0.270
 3612SOL    HW122175   0.622   4.522   0.202
 3612SOL    HW222176   0.520   4.486   0.324
 3613SOL     OW22177   1.281   4.069   0.944
 3613SOL    HW122178   1.195   4.019   0.931
 3613SOL    HW222179   1.343   4.015   1.000
 3614SOL     OW22180   1.394   4.193   1.674
 3614SOL    HW122181   1.374   4.236   1.762
 3614SOL    HW222182   1.472   4.131   1.683
 3615SOL     OW22183   0.973   4.614   1.572
 3615SOL    HW122184   1.019   4.530   1.543
 3615SOL    HW222185   0.917   4.648   1.497
 3616SOL     OW22186   1.041   4.425   0.429
 3616SOL    HW122187   1.067   4.421   0.525
 3616SOL    HW222188   0.956   4.374   0.415
 3617SOL     OW22189   0.865   4.072   0.195
 3617SOL    HW122190   0.924   4.135   0.146
 3617SOL    HW222191   0.884   3.978   0.166
 3618SOL     OW22192   1.719   4.309   1.831
 3618SOL    HW122193   1.693   4.398   1.795
 3618SOL    HW222194   1.717   4.241   1.758
 3619SOL     OW22195   1.458   4.459   0.728
 3619SOL    HW122196   1.453   4.394   0.803
 3619SOL    HW222197   1.538   4.518   0.741
 3620SOL     OW22198   1.400   3.831   0.426
 3620SOL    HW122199   1.376   3.794   0.336
 3620SOL    HW222200   1.499   3.847   0.430
 3621SOL     OW22201   0.382   4.424   0.480
 3621SOL    HW122202   0.427   4.334   0.477
 3621SOL    HW222203   0.288   4.413   0.513
 3622SOL     OW22204   1.547   3.946   1.729
 3622SOL    HW122205   1.542   3.983   1.821
 3622SOL    HW222206   1.475   3.877   1.717
 3623SOL     OW22207   0.781   3.988   1.749
 3623SOL    HW122208   0.848   3.927   1.792
 3623SOL    HW222209   0.708   4.007   1.814
 3624SOL     OW22210   1.351   4.314   1.433
 3624SOL    HW122211   1.379   4.271   1.518
 3624SOL    HW222212   1.376   4.410   1.434
 3625SOL     OW22213   0.539   3.788   0.512
 3625SOL    HW122214   0.458   3.789   0.570
 3625SOL    HW222215   0.542   3.871   0.457
 3626SOL     OW22216   0.866   4.178   0.642
 3626SOL    HW122217   0.834   4.250   0.580
 3626SOL    HW222218   0.890   4.097   0.589
 3627SOL     OW22219   1.429   4.897   0.867
 3627SOL    HW122220   1.374   4.813   0.860
 3627SOL    HW222221   1.455   4.926   0.775
 3628SOL     OW22222   1.466   4.314   0.992
 3628SOL    HW122223   1.436   4.219   0.999
 3628SOL    HW222224   1.539   4.330   1.058
 3629SOL     OW22225   1.857   4.557   0.377
 3629SOL    HW122226   1.899   4.493   0.441
 3629SOL    HW222227   1.819   4.506   0.299
 3630SOL     OW22228   1.390   4.299   0.078
 3630SOL    HW122229   1.336   4.278   0.159
 3630SOL    HW222230   1.481   4.258   0.087
 3631SOL     OW22231   0.527   3.980   0.328
 3631SOL    HW122232   0.554   3.921   0.253
 3631SOL    HW222233   0.527   4.075   0.297
 3632SOL     OW22234   1.274   4.110   1.262
 3632SOL    HW122235   1.295   4.184   1.326
 3632SOL    HW222236   1.185   4.127   1.219
 3633SOL     OW22237   1.582   4.363   0.472
 3633SOL    HW122238   1.551   4.424   0.545
 3633SOL    HW222239   1.632   4.415   0.403
 3634SOL     OW22240   1.587   4.503   1.670
 3634SOL    HW122241   1.495   4.541   1.665
 3634SOL    HW222242   1.647   4.550   1.605
 3635SOL     OW22243   1.013   3.829   1.770
 3635SOL    HW122244   1.019   3.914   1.718
 3635SOL    HW222245   1.045   3.753   1.713
 3636SOL     OW22246   0.573   4.594   1.029
 3636SOL    HW122247   0.617   4.683   1.020
 3636SOL    HW222248   0.510   4.594   1.106
 3637SOL     OW22249   1.209   4.249   0.275
 3637SOL    HW122250   1.222   4.165   0.329
 3637SOL    HW222251   1.180   4.323   0.335
 3638SOL     OW22252   0.037   5.034   1.282
 3638SOL    HW122253   0.090   4.985   1.350
 3638SOL    HW222254   0.059   5.132   1.287
 3639SOL     OW22255   1.728   4.659   1.854
 3639SOL    HW122256   1.682   4.652   1.765
 3639SOL    HW222257   1.666   4.703   1.920
 3640SOL     OW22258   0.307   3.787   0.618
 3640SOL    HW122259   0.296   3.881   0.651
 3640SOL    HW222260   0.302   3.724   0.695
 3641SOL     OW22261   1.622   4.091   0.374
 3641SOL    HW122262   1.624   4.015   0.438
 3641SOL    HW222263   1.574   4.168   0.414
 3642SOL     OW22264   0.350   4.622   1.804
 3642SOL    HW122265   0.426   4.666   1.852
 3642SOL    HW222266   0.385   4.575   1.722
 3643SOL     OW22267   1.540   3.998   0.125
 3643SOL    HW122268   1.479   3.923   0.148
 3643SOL    HW222269   1.562   4.050   0.208
 3644SOL     OW22270   1.138   4.104   1.678
 3644SOL    HW122271   1.093   4.167   1.742
 3644SOL    HW222272   1.231   4.135   1.661
 3645SOL     OW22273   1.160   3.931   1.477
 3645SOL    HW122274   1.160   3.995   1.554
 3645SOL    HW222275   1.188   3.979   1.394
 3646SOL     OW22276   0.815   4.296   0.325
 3646SOL    HW122277   0.822   4.207   0.279
 3646SOL    HW222278   0.721   4.330   0.317
 3647SOL     OW22279   1.657   4.328   1.206
 3647SOL    HW122280   1.619   4.259   1.268
 3647SOL    HW222281   1.739   4.292   1.162
 3648SOL     OW22282   0.473   4.224   0.191
 3648SOL    HW122283   0.534   4.304   0.195
 3648SOL    HW222284   0.378   4.255   0.198
 3649SOL     OW22285   1.302   4.579   0.309
 3649SOL    HW122286   1.216   4.548   0.351
 3649SOL    HW222287   1.298   4.565   0.210
 3650SOL     OW22288   0.903   3.810   0.133
 3650SOL    HW122289   0.954   3.811   0.047
 3650SOL    HW222290   0.959   3.768   0.204
 3651SOL     OW22291   1.726   3.859   0.523
 3651SOL    HW122292   1.799   3.842   0.456
 3651SOL    HW222293   1.695   3.772   0.561
 3652SOL     OW22294   1.280   4.651   0.672
 3652SOL    HW122295   1.340   4.570   0.674
 3652SOL    HW222296   1.320   4.720   0.612
 3653SOL     OW22297   1.841   3.899   0.963
 3653SOL    HW122298   1.880   3.814   0.927
 3653SOL    HW222299   1.743   3.901   0.944
 3654SOL     OW22300   0.916   4.634   0.291
 3654SOL    HW122301   0.979   4.672   0.223
 3654SOL    HW222302   0.956   4.551   0.330
 3655SOL     OW22303   1.709   4.109   1.381
 3655SOL    HW122304   1.782   4.178   1.385
 3655SOL    HW222305   1.737   4.034   1.322
 3656SOL     OW22306   0.672   3.927   1.489
 3656SOL    HW122307   0.762   3.911   1.449
 3656SOL    HW222308   0.680   3.932   1.588
 3657SOL     OW22309   0.613   4.566   1.431
 3657SOL    HW122310   0.669   4.647   1.414
 3657SOL    HW222311   0.672   4.486   1.434
 3658SOL     OW22312   0.716   4.289   1.708
 3658SOL    HW122313   0.735   4.354   1.782
 3658SOL    HW222314   0.776   4.209   1.717
 3659SOL     OW22315   1.674   4.607   1.254
 3659SOL    HW122316   1.647   4.518   1.217
 3659SOL    HW222317   1.675   4.675   1.181
 3660SOL     OW22318   1.225   4.049   0.449
 3660SOL    HW122319   1.290   3.975   0.438
 3660SOL    HW222320   1.245   4.099   0.533
 3661SOL     OW22321   0.594   4.469   0.652
 3661SOL    HW122322   0.644   4.554   0.633
 3661SOL    HW222323   0.506   4.471   0.604
 3662SOL     OW22324   1.777   4.066   1.642
 3662SOL    HW122325   1.760   4.097   1.548
 3662SOL    HW222326   1.693   4.029   1.680
 3663SOL     OW22327   1.730   4.658   1.517
 3663SOL    HW122328   1.768   4.749   1.532
 3663SOL    HW222329   1.722   4.641   1.418
 3664SOL     OW22330   0.859   4.680   0.861
 3664SOL    HW122331   0.913   4.611   0.909
 3664SOL    HW222332   0.827   4.749   0.927
 3665SOL     OW22333   1.824   3.916   1.227
 3665SOL    HW122334   1.820   3.826   1.271
 3665SOL    HW222335   1.827   3.905   1.128
 3666SOL     OW22336   0.428   4.148   0.520
 3666SOL    HW122337   0.458   4.076   0.458
 3666SOL    HW222338   0.389   4.108   0.603
 3667SOL     OW22339   1.424   3.938   1.112
 3667SOL    HW122340   1.476   3.873   1.167
 3667SOL    HW222341   1.375   4.001   1.173
 3668SOL     OW22342   1.352   3.776   0.168
 3668SOL    HW122343   1.387   3.735   0.084
 3668SOL    HW222344   1.262   3.738   0.188
 3669SOL     OW22345   1.300   4.177   0.691
 3669SOL    HW122346   1.241   4.257   0.695
 3669SOL    HW222347   1.315   4.142   0.784
 3670SOL     OW22348   1.593   3.945   0.882
 3670SOL    HW122349   1.509   3.944   0.936
 3670SOL    HW222350   1.595   4.028   0.826
 3671SOL     OW22351   0.225   3.999   2.858
 3671SOL    HW122352   0.260   3.982   2.950
 3671SOL    HW222353   0.137   3.954   2.846
 3672SOL     OW22354   0.019   4.092   2.509
 3672SOL    HW122355  -0.063   4.135   2.548
 3672SOL    HW222356  -0.009   4.019   2.446
 3673SOL     OW22357   1.135   4.427   2.579
 3673SOL    HW122358   1.192   4.505   2.554
 3673SOL    HW222359   1.075   4.453   2.655
 3674SOL     OW22360   1.755   4.331   2.093
 3674SOL    HW122361   1.743   4.318   1.994
 3674SOL    HW222362   1.725   4.250   2.142
 3675SOL     OW22363   0.768   4.868   2.885
 3675SOL    HW122364   0.690   4.885   2.945
 3675SOL    HW222365   0.802   4.955   2.849
 3676SOL     OW22366   0.850   4.522   3.685
 3676SOL    HW122367   0.846   4.598   3.750
 3676SOL    HW222368   0.872   4.558   3.594
 3677SOL     OW22369   0.685   4.736   2.527
 3677SOL    HW122370   0.754   4.720   2.597
 3677SOL    HW222371   0.612   4.793   2.565
 3678SOL     OW22372   0.438   4.116   3.361
 3678SOL    HW122373   0.520   4.060   3.370
 3678SOL    HW222374   0.357   4.058   3.365
 3679SOL     OW22375   1.603   4.171   2.599
 3679SOL    HW122376   1.529   4.217   2.549
 3679SOL    HW222377   1.654   4.239   2.652
 3680SOL     OW22378   0.240   4.815   2.748
 3680SOL    HW122379   0.254   4.731   2.800
 3680SOL    HW222380   0.185   4.879   2.803
 3681SOL     OW22381   0.606   4.688   1.985
 3681SOL    HW122382   0.613   4.772   1.931
 3681SOL    HW222383   0.652   4.701   2.073
 3682SOL     OW22384   1.594   3.838   3.342
 3682SOL    HW122385   1.576   3.905   3.270
 3682SOL    HW222386   1.591   3.884   3.431
 3683SOL     OW22387   0.122   4.367   2.425
 3683SOL    HW122388   0.077   4.279   2.442
 3683SOL    HW222389   0.121   4.421   2.509
 3684SOL     OW22390   1.689   4.646   2.474
 3684SOL    HW122391   1.784   4.617   2.482
 3684SOL    HW222392   1.681   4.711   2.399
 3685SOL     OW22393   0.113   4.461   3.459
 3685SOL    HW122394   0.201   4.448   3.504
 3685SOL    HW222395   0.100   4.558   3.437
 3686SOL     OW22396   0.809   3.728   2.364
 3686SOL    HW122397   0.849   3.819   2.355
 3686SOL    HW222398   0.709   3.736   2.370
 3687SOL     OW22399   0.197   4.700   3.126
 3687SOL    HW122400   0.286   4.655   3.112
 3687SOL    HW222401   0.124   4.635   3.107
 3688SOL     OW22402   1.525   4.723   2.052
 3688SOL    HW122403   1.462   4.647   2.065
 3688SOL    HW222404   1.573   4.741   2.138
 3689SOL     OW22405   0.317   3.975   3.663
 3689SOL    HW122406   0.388   4.046   3.669
 3689SOL    HW222407   0.229   4.014   3.691
 3690SOL     OW22408   0.598   4.453   2.132
 3690SOL    HW122409   0.622   4.522   2.064
 3690SOL    HW222410   0.520   4.486   2.186
 3691SOL     OW22411   1.281   4.069   2.806
 3691SOL    HW122412   1.195   4.019   2.793
 3691SOL    HW222413   1.343   4.015   2.862
 3692SOL     OW22414   0.807   4.329   3.327
 3692SOL    HW122415   0.760   4.326   3.416
 3692SOL    HW222416   0.756   4.274   3.261
 3693SOL     OW22417   1.394   4.193   3.536
 3693SOL    HW122418   1.374   4.236   3.624
 3693SOL    HW222419   1.472   4.131   3.545
 3694SOL     OW22420   0.973   4.614   3.434
 3694SOL    HW122421   1.019   4.530   3.405
 3694SOL    HW222422   0.917   4.648   3.359
 3695SOL     OW22423   0.991   4.134   3.104
 3695SOL    HW122424   0.914   4.168   3.158
 3695SOL    HW222425   0.957   4.083   3.025
 3696SOL     OW22426   1.041   4.425   2.291
 3696SOL    HW122427   1.067   4.421   2.387
 3696SOL    HW222428   0.956   4.374   2.277
 3697SOL     OW22429   0.076   4.535   2.651
 3697SOL    HW122430   0.175   4.523   2.660
 3697SOL    HW222431   0.052   4.630   2.672
 3698SOL     OW22432   0.865   4.072   2.057
 3698SOL    HW122433   0.924   4.135   2.008
 3698SOL    HW222434   0.884   3.978   2.028
 3699SOL     OW22435   1.719   4.309   3.693
 3699SOL    HW122436   1.693   4.398   3.657
 3699SOL    HW222437   1.717   4.241   3.620
 3700SOL     OW22438   0.550   3.920   2.747
 3700SOL    HW122439   0.545   3.915   2.847
 3700SOL    HW222440   0.552   4.016   2.718
 3701SOL     OW22441   1.458   4.459   2.590
 3701SOL    HW122442   1.453   4.394   2.665
 3701SOL    HW222443   1.538   4.518   2.603
 3702SOL     OW22444   0.202   4.009   3.360
 3702SOL    HW122445   0.122   4.069   3.347
 3702SOL    HW222446   0.192   3.960   3.446
 3703SOL     OW22447   1.400   3.831   2.288
 3703SOL    HW122448   1.376   3.794   2.198
 3703SOL    HW222449   1.499   3.847   2.292
 3704SOL     OW22450   0.382   4.424   2.342
 3704SOL    HW122451   0.427   4.334   2.339
 3704SOL    HW222452   0.288   4.413   2.375
 3705SOL     OW22453   1.547   3.946   3.591
 3705SOL    HW122454   1.542   3.983   3.683
 3705SOL    HW222455   1.475   3.877   3.579
 3706SOL     OW22456   0.614   3.846   1.979
 3706SOL    HW122457   0.712   3.824   1.986
 3706SOL    HW222458   0.583   3.829   1.886
 3707SOL     OW22459   0.781   3.988   3.611
 3707SOL    HW122460   0.848   3.927   3.654
 3707SOL    HW222461   0.708   4.007   3.676
 3708SOL     OW22462   1.351   4.314   3.295
 3708SOL    HW122463   1.379   4.271   3.380
 3708SOL    HW222464   1.376   4.410   3.296
 3709SOL     OW22465   0.922   4.227   2.761
 3709SOL    HW122466   0.897   4.218   2.665
 3709SOL    HW222467   0.970   4.145   2.792
 3710SOL     OW22468   0.539   3.788   2.374
 3710SOL    HW122469   0.458   3.789   2.432
 3710SOL    HW222470   0.542   3.871   2.319
 3711SOL     OW22471   0.935   3.960   2.342
 3711SOL    HW122472   0.887   4.001   2.264
 3711SOL    HW222473   1.034   3.958   2.323
 3712SOL     OW22474   1.076   4.407   3.326
 3712SOL    HW122475   0.996   4.346   3.329
 3712SOL    HW222476   1.157   4.354   3.302
 3713SOL     OW22477   1.032   4.273   1.878
 3713SOL    HW122478   0.991   4.355   1.839
 3713SOL    HW222479   1.096   4.299   1.951
 3714SOL     OW22480   0.078   4.280   3.248
 3714SOL    HW122481   0.170   4.279   3.207
 3714SOL    HW222482   0.072   4.354   3.315
 3715SOL     OW22483   0.561   3.946   3.009
 3715SOL    HW122484   0.599   3.862   3.046
 3715SOL    HW222485   0.473   3.965   3.053
 3716SOL     OW22486   0.866   4.178   2.504
 3716SOL    HW122487   0.834   4.250   2.442
 3716SOL    HW222488   0.890   4.097   2.451
 3717SOL     OW22489   1.017   3.763   2.615
 3717SOL    HW122490   0.945   3.768   2.546
 3717SOL    HW222491   0.993   3.694   2.684
 3718SOL     OW22492   1.429   4.897   2.729
 3718SOL    HW122493   1.374   4.813   2.722
 3718SOL    HW222494   1.455   4.926   2.637
 3719SOL     OW22495   1.466   4.314   2.854
 3719SOL    HW122496   1.436   4.219   2.861
 3719SOL    HW222497   1.539   4.330   2.920
 3720SOL     OW22498   1.857   4.557   2.239
 3720SOL    HW122499   1.899   4.493   2.303
 3720SOL    HW222500   1.819   4.506   2.161
 3721SOL     OW22501   1.390   4.299   1.940
 3721SOL    HW122502   1.336   4.278   2.021
 3721SOL    HW222503   1.481   4.258   1.949
 3722SOL     OW22504   0.527   3.980   2.190
 3722SOL    HW122505   0.554   3.921   2.115
 3722SOL    HW222506   0.527   4.075   2.159
 3723SOL     OW22507   1.638   4.823   2.941
 3723SOL    HW122508   1.643   4.904   3.000
 3723SOL    HW222509   1.552   4.825   2.890
 3724SOL     OW22510   0.915   3.813   3.264
 3724SOL    HW122511   0.940   3.793   3.169
 3724SOL    HW222512   0.987   3.869   3.306
 3725SOL     OW22513   0.410   4.537   3.113
 3725SOL    HW122514   0.496   4.549   3.163
 3725SOL    HW222515   0.368   4.450   3.140
 3726SOL     OW22516   1.274   4.110   3.124
 3726SOL    HW122517   1.295   4.184   3.188
 3726SOL    HW222518   1.185   4.127   3.081
 3727SOL     OW22519   0.566   4.261   2.727
 3727SOL    HW122520   0.578   4.327   2.653
 3727SOL    HW222521   0.612   4.295   2.810
 3728SOL     OW22522   1.582   4.363   2.334
 3728SOL    HW122523   1.551   4.424   2.407
 3728SOL    HW222524   1.632   4.415   2.265
 3729SOL     OW22525   0.402   4.475   3.460
 3729SOL    HW122526   0.470   4.530   3.413
 3729SOL    HW222527   0.442   4.387   3.487
 3730SOL     OW22528   1.587   4.503   3.532
 3730SOL    HW122529   1.495   4.541   3.527
 3730SOL    HW222530   1.647   4.550   3.467
 3731SOL     OW22531   1.013   3.829   3.632
 3731SOL    HW122532   1.019   3.914   3.580
 3731SOL    HW222533   1.045   3.753   3.575
 3732SOL     OW22534   0.504   3.774   3.602
 3732SOL    HW122535   0.462   3.717   3.532
 3732SOL    HW222536   0.438   3.843   3.634
 3733SOL     OW22537   0.573   4.594   2.891
 3733SOL    HW122538   0.617   4.683   2.882
 3733SOL    HW222539   0.510   4.594   2.968
 3734SOL     OW22540   1.360   4.586   2.907
 3734SOL    HW122541   1.285   4.586   2.841
 3734SOL    HW222542   1.397   4.494   2.916
 3735SOL     OW22543   1.209   4.249   2.137
 3735SOL    HW122544   1.222   4.165   2.191
 3735SOL    HW222545   1.180   4.323   2.197
 3736SOL     OW22546   0.307   3.937   3.093
 3736SOL    HW122547   0.284   3.974   3.183
 3736SOL    HW222548   0.277   3.842   3.087
 3737SOL     OW22549   0.037   5.034   3.144
 3737SOL    HW122550   0.090   4.985   3.212
 3737SOL    HW222551   0.059   5.132   3.149
 3738SOL     OW22552   0.732   4.358   2.926
 3738SOL    HW122553   0.791   4.332   2.850
 3738SOL    HW222554   0.704   4.454   2.915
 3739SOL     OW22555   1.728   4.659   3.716
 3739SOL    HW122556   1.682   4.652   3.627
 3739SOL    HW222557   1.666   4.703   3.782
 3740SOL     OW22558   0.307   3.787   2.480
 3740SOL    HW122559   0.296   3.881   2.513
 3740SOL    HW222560   0.302   3.724   2.557
 3741SOL     OW22561   1.622   4.091   2.236
 3741SOL    HW122562   1.624   4.015   2.300
 3741SOL    HW222563   1.574   4.168   2.276
 3742SOL     OW22564   1.023   4.490   2.828
 3742SOL    HW122565   1.038   4.511   2.924
 3742SOL    HW222566   0.993   4.395   2.819
 3743SOL     OW22567   0.350   4.622   3.666
 3743SOL    HW122568   0.426   4.666   3.714
 3743SOL    HW222569   0.385   4.575   3.584
 3744SOL     OW22570   1.540   3.998   1.987
 3744SOL    HW122571   1.479   3.923   2.010
 3744SOL    HW222572   1.562   4.050   2.070
 3745SOL     OW22573   1.303   4.562   1.904
 3745SOL    HW122574   1.337   4.469   1.919
 3745SOL    HW222575   1.321   4.589   1.809
 3746SOL     OW22576   0.319   4.534   2.811
 3746SOL    HW122577   0.412   4.570   2.816
 3746SOL    HW222578   0.313   4.449   2.863
 3747SOL     OW22579   0.339   4.233   2.868
 3747SOL    HW122580   0.287   4.150   2.851
 3747SOL    HW222581   0.416   4.238   2.804
 3748SOL     OW22582   1.138   4.104   3.540
 3748SOL    HW122583   1.093   4.167   3.604
 3748SOL    HW222584   1.231   4.135   3.523
 3749SOL     OW22585   1.160   3.931   3.339
 3749SOL    HW122586   1.160   3.995   3.416
 3749SOL    HW222587   1.188   3.979   3.256
 3750SOL     OW22588   1.002   4.520   3.100
 3750SOL    HW122589   1.043   4.488   3.186
 3750SOL    HW222590   0.906   4.493   3.097
 3751SOL     OW22591   0.040   4.268   2.976
 3751SOL    HW122592   0.125   4.235   2.935
 3751SOL    HW222593   0.053   4.283   3.074
 3752SOL     OW22594   0.189   4.244   3.584
 3752SOL    HW122595   0.248   4.204   3.514
 3752SOL    HW222596   0.131   4.315   3.543
 3753SOL     OW22597   1.369   4.674   3.522
 3753SOL    HW122598   1.408   4.763   3.542
 3753SOL    HW222599   1.379   4.654   3.425
 3754SOL     OW22600   0.815   4.296   2.187
 3754SOL    HW122601   0.822   4.207   2.141
 3754SOL    HW222602   0.721   4.330   2.179
 3755SOL     OW22603   1.657   4.328   3.068
 3755SOL    HW122604   1.619   4.259   3.130
 3755SOL    HW222605   1.739   4.292   3.024
 3756SOL     OW22606   0.671   4.188   3.131
 3756SOL    HW122607   0.637   4.099   3.101
 3756SOL    HW222608   0.697   4.242   3.051
 3757SOL     OW22609   0.473   4.224   2.053
 3757SOL    HW122610   0.534   4.304   2.057
 3757SOL    HW222611   0.378   4.255   2.060
 3758SOL     OW22612   0.159   4.861   3.328
 3758SOL    HW122613   0.181   4.800   3.404
 3758SOL    HW222614   0.169   4.812   3.242
 3759SOL     OW22615   1.347   4.783   3.096
 3759SOL    HW122616   1.371   4.720   3.022
 3759SOL    HW222617   1.257   4.823   3.078
 3760SOL     OW22618   1.302   4.579   2.171
 3760SOL    HW122619   1.216   4.548   2.213
 3760SOL    HW222620   1.298   4.565   2.072
 3761SOL     OW22621   1.726   3.859   2.385
 3761SOL    HW122622   1.799   3.842   2.318
 3761SOL    HW222623   1.695   3.772   2.423
 3762SOL     OW22624   1.280   4.651   2.534
 3762SOL    HW122625   1.340   4.570   2.536
 3762SOL    HW222626   1.320   4.720   2.474
 3763SOL     OW22627   1.841   3.899   2.825
 3763SOL    HW122628   1.880   3.814   2.789
 3763SOL    HW222629   1.743   3.901   2.806
 3764SOL     OW22630   0.263   4.050   2.582
 3764SOL    HW122631   0.184   4.101   2.548
 3764SOL    HW222632   0.254   4.035   2.680
 3765SOL     OW22633   0.916   4.634   2.153
 3765SOL    HW122634   0.979   4.672   2.085
 3765SOL    HW222635   0.956   4.551   2.192
 3766SOL     OW22636   1.014   3.960   2.833
 3766SOL    HW122637   1.006   3.924   2.740
 3766SOL    HW222638   1.012   3.884   2.898
 3767SOL     OW22639   1.709   4.109   3.243
 3767SOL    HW122640   1.782   4.178   3.247
 3767SOL    HW222641   1.737   4.034   3.184
 3768SOL     OW22642   0.105   4.737   3.588
 3768SOL    HW122643   0.028   4.704   3.642
 3768SOL    HW222644   0.190   4.707   3.630
 3769SOL     OW22645   0.672   3.927   3.351
 3769SOL    HW122646   0.762   3.911   3.311
 3769SOL    HW222647   0.680   3.932   3.450
 3770SOL     OW22648   0.075   4.069   1.895
 3770SOL    HW122649  -0.017   4.041   1.866
 3770SOL    HW222650   0.106   4.146   1.839
 3771SOL     OW22651   1.440   4.580   3.260
 3771SOL    HW122652   1.383   4.632   3.197
 3771SOL    HW222653   1.536   4.592   3.236
 3772SOL     OW22654   0.072   3.890   2.180
 3772SOL    HW122655   0.055   3.973   2.126
 3772SOL    HW222656   0.162   3.853   2.158
 3773SOL     OW22657   1.183   5.059   1.981
 3773SOL    HW122658   1.084   5.048   1.983
 3773SOL    HW222659   1.217   5.074   2.074
 3774SOL     OW22660   0.613   4.566   3.293
 3774SOL    HW122661   0.669   4.647   3.276
 3774SOL    HW222662   0.672   4.486   3.296
 3775SOL     OW22663   0.716   4.289   3.570
 3775SOL    HW122664   0.735   4.354   3.644
 3775SOL    HW222665   0.776   4.209   3.579
 3776SOL     OW22666   1.674   4.607   3.116
 3776SOL    HW122667   1.647   4.518   3.079
 3776SOL    HW222668   1.675   4.675   3.043
 3777SOL     OW22669   1.225   4.049   2.311
 3777SOL    HW122670   1.290   3.975   2.300
 3777SOL    HW222671   1.245   4.099   2.395
 3778SOL     OW22672   0.594   4.469   2.514
 3778SOL    HW122673   0.644   4.554   2.495
 3778SOL    HW222674   0.506   4.471   2.466
 3779SOL     OW22675   1.777   4.066   3.504
 3779SOL    HW122676   1.760   4.097   3.410
 3779SOL    HW222677   1.693   4.029   3.542
 3780SOL     OW22678   1.730   4.658   3.379
 3780SOL    HW122679   1.768   4.749   3.394
 3780SOL    HW222680   1.722   4.641   3.280
 3781SOL     OW22681   0.859   4.680   2.723
 3781SOL    HW122682   0.913   4.611   2.771
 3781SOL    HW222683   0.827   4.749   2.789
 3782SOL     OW22684   1.083   4.708   1.949
 3782SOL    HW122685   1.060   4.761   1.867
 3782SOL    HW222686   1.164   4.652   1.930
 3783SOL     OW22687   0.079   4.964   2.515
 3783SOL    HW122688   0.078   4.917   2.603
 3783SOL    HW222689   0.161   4.936   2.464
 3784SOL     OW22690   1.824   3.916   3.089
 3784SOL    HW122691   1.820   3.826   3.133
 3784SOL    HW222692   1.827   3.905   2.990
 3785SOL     OW22693   0.428   4.148   2.382
 3785SOL    HW122694   0.458   4.076   2.320
 3785SOL    HW222695   0.389   4.108   2.465
 3786SOL     OW22696   0.317   4.271   3.142
 3786SOL    HW122697   0.355   4.212   3.214
 3786SOL    HW222698   0.357   4.245   3.054
 3787SOL     OW22699   1.424   3.938   2.974
 3787SOL    HW122700   1.476   3.873   3.029
 3787SOL    HW222701   1.375   4.001   3.035
 3788SOL     OW22702   1.001   3.758   3.016
 3788SOL    HW122703   0.938   3.686   2.985
 3788SOL    HW222704   1.094   3.722   3.016
 3789SOL     OW22705   1.352   3.776   2.030
 3789SOL    HW122706   1.387   3.735   1.946
 3789SOL    HW222707   1.262   3.738   2.050
 3790SOL     OW22708   1.300   4.177   2.553
 3790SOL    HW122709   1.241   4.257   2.557
 3790SOL    HW222710   1.315   4.142   2.646
 3791SOL     OW22711   1.593   3.945   2.744
 3791SOL    HW122712   1.509   3.944   2.798
 3791SOL    HW222713   1.595   4.028   2.688
 3792SOL     OW22714   0.039   4.801   2.162
 3792SOL    HW122715   0.138   4.790   2.153
 3792SOL    HW222716  -0.001   4.715   2.194
 3793SOL     OW22717   0.230   4.352   3.837
 3793SOL    HW122718   0.137   4.350   3.874
 3793SOL    HW222719   0.231   4.313   3.745
 3794SOL     OW22720   0.225   3.999   4.720
 3794SOL    HW122721   0.260   3.982   4.812
 3794SOL    HW222722   0.137   3.954   4.708
 3795SOL     OW22723   0.019   4.092   4.371
 3795SOL    HW122724  -0.063   4.135   4.410
 3795SOL    HW222725  -0.009   4.019   4.308
 3796SOL     OW22726   1.135   4.427   4.441
 3796SOL    HW122727   1.192   4.505   4.416
 3796SOL    HW222728   1.075   4.453   4.517
 3797SOL     OW22729   1.755   4.331   3.955
 3797SOL    HW122730   1.743   4.318   3.856
 3797SOL    HW222731   1.725   4.250   4.004
 3798SOL     OW22732   0.768   4.868   4.747
 3798SOL    HW122733   0.690   4.885   4.807
 3798SOL    HW222734   0.802   4.955   4.711
 3799SOL     OW22735   0.850   4.522   5.547
 3799SOL    HW122736   0.846   4.598   5.612
 3799SOL    HW222737   0.872   4.558   5.456
 3800SOL     OW22738   0.685   4.736   4.389
 3800SOL    HW122739   0.754   4.720   4.459
 3800SOL    HW222740   0.612   4.793   4.427
 3801SOL     OW22741   0.438   4.116   5.223
 3801SOL    HW122742   0.520   4.060   5.232
 3801SOL    HW222743   0.357   4.058   5.227
 3802SOL     OW22744   1.603   4.171   4.461
 3802SOL    HW122745   1.529   4.217   4.411
 3802SOL    HW222746   1.654   4.239   4.514
 3803SOL     OW22747   0.240   4.815   4.610
 3803SOL    HW122748   0.254   4.731   4.662
 3803SOL    HW222749   0.185   4.879   4.665
 3804SOL     OW22750   0.606   4.688   3.847
 3804SOL    HW122751   0.613   4.772   3.793
 3804SOL    HW222752   0.652   4.701   3.935
 3805SOL     OW22753   1.594   3.838   5.204
 3805SOL    HW122754   1.576   3.905   5.132
 3805SOL    HW222755   1.591   3.884   5.293
 3806SOL     OW22756   0.122   4.367   4.287
 3806SOL    HW122757   0.077   4.279   4.304
 3806SOL    HW222758   0.121   4.421   4.371
 3807SOL     OW22759   1.689   4.646   4.336
 3807SOL    HW122760   1.784   4.617   4.344
 3807SOL    HW222761   1.681   4.711   4.261
 3808SOL     OW22762   0.113   4.461   5.321
 3808SOL    HW122763   0.201   4.448   5.366
 3808SOL    HW222764   0.100   4.558   5.299
 3809SOL     OW22765   0.809   3.728   4.226
 3809SOL    HW122766   0.849   3.819   4.217
 3809SOL    HW222767   0.709   3.736   4.232
 3810SOL     OW22768   0.197   4.700   4.988
 3810SOL    HW122769   0.286   4.655   4.974
 3810SOL    HW222770   0.124   4.635   4.969
 3811SOL     OW22771   1.525   4.723   3.914
 3811SOL    HW122772   1.462   4.647   3.927
 3811SOL    HW222773   1.573   4.741   4.000
 3812SOL     OW22774   0.317   3.975   5.525
 3812SOL    HW122775   0.388   4.046   5.531
 3812SOL    HW222776   0.229   4.014   5.553
 3813SOL     OW22777   1.281   4.069   4.668
 3813SOL    HW122778   1.195   4.019   4.655
 3813SOL    HW222779   1.343   4.015   4.724
 3814SOL     OW22780   0.807   4.329   5.189
 3814SOL    HW122781   0.760   4.326   5.278
 3814SOL    HW222782   0.756   4.274   5.123
 3815SOL     OW22783   1.394   4.193   5.398
 3815SOL    HW122784   1.374   4.236   5.486
 3815SOL    HW222785   1.472   4.131   5.407
 3816SOL     OW22786   0.973   4.614   5.296
 3816SOL    HW122787   1.019   4.530   5.267
 3816SOL    HW222788   0.917   4.648   5.221
 3817SOL     OW22789   0.991   4.134   4.966
 3817SOL    HW122790   0.914   4.168   5.020
 3817SOL    HW222791   0.957   4.083   4.887
 3818SOL     OW22792   1.041   4.425   4.153
 3818SOL    HW122793   1.067   4.421   4.249
 3818SOL    HW222794   0.956   4.374   4.139
 3819SOL     OW22795   0.076   4.535   4.513
 3819SOL    HW122796   0.175   4.523   4.522
 3819SOL    HW222797   0.052   4.630   4.534
 3820SOL     OW22798   0.865   4.072   3.919
 3820SOL    HW122799   0.924   4.135   3.870
 3820SOL    HW222800   0.884   3.978   3.890
 3821SOL     OW22801   1.719   4.309   5.555
 3821SOL    HW122802   1.693   4.398   5.519
 3821SOL    HW222803   1.717   4.241   5.482
 3822SOL     OW22804   0.550   3.920   4.609
 3822SOL    HW122805   0.545   3.915   4.709
 3822SOL    HW222806   0.552   4.016   4.580
 3823SOL     OW22807   1.458   4.459   4.452
 3823SOL    HW122808   1.453   4.394   4.527
 3823SOL    HW222809   1.538   4.518   4.465
 3824SOL     OW22810   0.202   4.009   5.222
 3824SOL    HW122811   0.122   4.069   5.209
 3824SOL    HW222812   0.192   3.960   5.308
 3825SOL     OW22813   1.400   3.831   4.150
 3825SOL    HW122814   1.376   3.794   4.060
 3825SOL    HW222815   1.499   3.847   4.154
 3826SOL     OW22816   0.382   4.424   4.204
 3826SOL    HW122817   0.427   4.334   4.201
 3826SOL    HW222818   0.288   4.413   4.237
 3827SOL     OW22819   1.547   3.946   5.453
 3827SOL    HW122820   1.542   3.983   5.545
 3827SOL    HW222821   1.475   3.877   5.441
 3828SOL     OW22822   0.614   3.846   3.841
 3828SOL    HW122823   0.712   3.824   3.848
 3828SOL    HW222824   0.583   3.829   3.748
 3829SOL     OW22825   0.781   3.988   5.473
 3829SOL    HW122826   0.848   3.927   5.516
 3829SOL    HW222827   0.708   4.007   5.538
 3830SOL     OW22828   1.351   4.314   5.157
 3830SOL    HW122829   1.379   4.271   5.242
 3830SOL    HW222830   1.376   4.410   5.158
 3831SOL     OW22831   0.922   4.227   4.623
 3831SOL    HW122832   0.897   4.218   4.527
 3831SOL    HW222833   0.970   4.145   4.654
 3832SOL     OW22834   0.539   3.788   4.236
 3832SOL    HW122835   0.458   3.789   4.294
 3832SOL    HW222836   0.542   3.871   4.181
 3833SOL     OW22837   0.297   3.759   3.895
 3833SOL    HW122838   0.346   3.843   3.874
 3833SOL    HW222839   0.359   3.694   3.940
 3834SOL     OW22840   0.935   3.960   4.204
 3834SOL    HW122841   0.887   4.001   4.126
 3834SOL    HW222842   1.034   3.958   4.185
 3835SOL     OW22843   1.076   4.407   5.188
 3835SOL    HW122844   0.996   4.346   5.191
 3835SOL    HW222845   1.157   4.354   5.164
 3836SOL     OW22846   1.032   4.273   3.740
 3836SOL    HW122847   0.991   4.355   3.701
 3836SOL    HW222848   1.096   4.299   3.813
 3837SOL     OW22849   0.078   4.280   5.110
 3837SOL    HW122850   0.170   4.279   5.069
 3837SOL    HW222851   0.072   4.354   5.177
 3838SOL     OW22852   0.561   3.946   4.871
 3838SOL    HW122853   0.599   3.862   4.908
 3838SOL    HW222854   0.473   3.965   4.915
 3839SOL     OW22855   0.866   4.178   4.366
 3839SOL    HW122856   0.834   4.250   4.304
 3839SOL    HW222857   0.890   4.097   4.313
 3840SOL     OW22858   1.017   3.763   4.477
 3840SOL    HW122859   0.945   3.768   4.408
 3840SOL    HW222860   0.993   3.694   4.546
 3841SOL     OW22861   1.429   4.897   4.591
 3841SOL    HW122862   1.374   4.813   4.584
 3841SOL    HW222863   1.455   4.926   4.499
 3842SOL     OW22864   1.466   4.314   4.716
 3842SOL    HW122865   1.436   4.219   4.723
 3842SOL    HW222866   1.539   4.330   4.782
 3843SOL     OW22867   1.857   4.557   4.101
 3843SOL    HW122868   1.899   4.493   4.165
 3843SOL    HW222869   1.819   4.506   4.023
 3844SOL     OW22870   1.390   4.299   3.802
 3844SOL    HW122871   1.336   4.278   3.883
 3844SOL    HW222872   1.481   4.258   3.811
 3845SOL     OW22873   0.527   3.980   4.052
 3845SOL    HW122874   0.554   3.921   3.977
 3845SOL    HW222875   0.527   4.075   4.021
 3846SOL     OW22876   1.638   4.823   4.803
 3846SOL    HW122877   1.643   4.904   4.862
 3846SOL    HW222878   1.552   4.825   4.752
 3847SOL     OW22879   0.915   3.813   5.126
 3847SOL    HW122880   0.940   3.793   5.031
 3847SOL    HW222881   0.987   3.869   5.168
 3848SOL     OW22882   0.410   4.537   4.975
 3848SOL    HW122883   0.496   4.549   5.025
 3848SOL    HW222884   0.368   4.450   5.002
 3849SOL     OW22885   1.274   4.110   4.986
 3849SOL    HW122886   1.295   4.184   5.050
 3849SOL    HW222887   1.185   4.127   4.943
 3850SOL     OW22888   0.566   4.261   4.589
 3850SOL    HW122889   0.578   4.327   4.515
 3850SOL    HW222890   0.612   4.295   4.672
 3851SOL     OW22891   1.582   4.363   4.196
 3851SOL    HW122892   1.551   4.424   4.269
 3851SOL    HW222893   1.632   4.415   4.127
 3852SOL     OW22894   0.402   4.475   5.322
 3852SOL    HW122895   0.470   4.530   5.275
 3852SOL    HW222896   0.442   4.387   5.349
 3853SOL     OW22897   1.587   4.503   5.394
 3853SOL    HW122898   1.495   4.541   5.389
 3853SOL    HW222899   1.647   4.550   5.329
 3854SOL     OW22900   1.013   3.829   5.494
 3854SOL    HW122901   1.019   3.914   5.442
 3854SOL    HW222902   1.045   3.753   5.437
 3855SOL     OW22903   0.504   3.774   5.464
 3855SOL    HW122904   0.462   3.717   5.394
 3855SOL    HW222905   0.438   3.843   5.496
 3856SOL     OW22906   0.573   4.594   4.753
 3856SOL    HW122907   0.617   4.683   4.744
 3856SOL    HW222908   0.510   4.594   4.830
 3857SOL     OW22909   1.360   4.586   4.769
 3857SOL    HW122910   1.285   4.586   4.703
 3857SOL    HW222911   1.397   4.494   4.778
 3858SOL     OW22912   1.209   4.249   3.999
 3858SOL    HW122913   1.222   4.165   4.053
 3858SOL    HW222914   1.180   4.323   4.059
 3859SOL     OW22915   0.307   3.937   4.955
 3859SOL    HW122916   0.284   3.974   5.045
 3859SOL    HW222917   0.277   3.842   4.949
 3860SOL     OW22918   0.037   5.034   5.006
 3860SOL    HW122919   0.090   4.985   5.074
 3860SOL    HW222920   0.059   5.132   5.011
 3861SOL     OW22921   0.732   4.358   4.788
 3861SOL    HW122922   0.791   4.332   4.712
 3861SOL    HW222923   0.704   4.454   4.777
 3862SOL     OW22924   1.728   4.659   5.578
 3862SOL    HW122925   1.682   4.652   5.489
 3862SOL    HW222926   1.666   4.703   5.644
 3863SOL     OW22927   0.307   3.787   4.342
 3863SOL    HW122928   0.296   3.881   4.375
 3863SOL    HW222929   0.302   3.724   4.419
 3864SOL     OW22930   1.622   4.091   4.098
 3864SOL    HW122931   1.624   4.015   4.162
 3864SOL    HW222932   1.574   4.168   4.138
 3865SOL     OW22933   1.023   4.490   4.690
 3865SOL    HW122934   1.038   4.511   4.786
 3865SOL    HW222935   0.993   4.395   4.681
 3866SOL     OW22936   0.350   4.622   5.528
 3866SOL    HW122937   0.426   4.666   5.576
 3866SOL    HW222938   0.385   4.575   5.446
 3867SOL     OW22939   1.540   3.998   3.849
 3867SOL    HW122940   1.479   3.923   3.872
 3867SOL    HW222941   1.562   4.050   3.932
 3868SOL     OW22942   1.303   4.562   3.766
 3868SOL    HW122943   1.337   4.469   3.781
 3868SOL    HW222944   1.321   4.589   3.671
 3869SOL     OW22945   0.319   4.534   4.673
 3869SOL    HW122946   0.412   4.570   4.678
 3869SOL    HW222947   0.313   4.449   4.725
 3870SOL     OW22948   0.339   4.233   4.730
 3870SOL    HW122949   0.287   4.150   4.713
 3870SOL    HW222950   0.416   4.238   4.666
 3871SOL     OW22951   1.138   4.104   5.402
 3871SOL    HW122952   1.093   4.167   5.466
 3871SOL    HW222953   1.231   4.135   5.385
 3872SOL     OW22954   1.160   3.931   5.201
 3872SOL    HW122955   1.160   3.995   5.278
 3872SOL    HW222956   1.188   3.979   5.118
 3873SOL     OW22957   1.002   4.520   4.962
 3873SOL    HW122958   1.043   4.488   5.048
 3873SOL    HW222959   0.906   4.493   4.959
 3874SOL     OW22960   0.040   4.268   4.838
 3874SOL    HW122961   0.125   4.235   4.797
 3874SOL    HW222962   0.053   4.283   4.936
 3875SOL     OW22963   0.189   4.244   5.446
 3875SOL    HW122964   0.248   4.204   5.376
 3875SOL    HW222965   0.131   4.315   5.405
 3876SOL     OW22966   1.369   4.674   5.384
 3876SOL    HW122967   1.408   4.763   5.404
 3876SOL    HW222968   1.379   4.654   5.287
 3877SOL     OW22969   1.657   4.328   4.930
 3877SOL    HW122970   1.619   4.259   4.992
 3877SOL    HW222971   1.739   4.292   4.886
 3878SOL     OW22972   0.671   4.188   4.993
 3878SOL    HW122973   0.637   4.099   4.963
 3878SOL    HW222974   0.697   4.242   4.913
 3879SOL     OW22975   0.159   4.861   5.190
 3879SOL    HW122976   0.181   4.800   5.266
 3879SOL    HW222977   0.169   4.812   5.104
 3880SOL     OW22978   1.347   4.783   4.958
 3880SOL    HW122979   1.371   4.720   4.884
 3880SOL    HW222980   1.257   4.823   4.940
 3881SOL     OW22981   1.302   4.579   4.033
 3881SOL    HW122982   1.216   4.548   4.075
 3881SOL    HW222983   1.298   4.565   3.934
 3882SOL     OW22984   1.726   3.859   4.247
 3882SOL    HW122985   1.799   3.842   4.180
 3882SOL    HW222986   1.695   3.772   4.285
 3883SOL     OW22987   1.280   4.651   4.396
 3883SOL    HW122988   1.340   4.570   4.398
 3883SOL    HW222989   1.320   4.720   4.336
 3884SOL     OW22990   1.841   3.899   4.687
 3884SOL    HW122991   1.880   3.814   4.651
 3884SOL    HW222992   1.743   3.901   4.668
 3885SOL     OW22993   0.263   4.050   4.444
 3885SOL    HW122994   0.184   4.101   4.410
 3885SOL    HW222995   0.254   4.035   4.542
 3886SOL     OW22996   0.916   4.634   4.015
 3886SOL    HW122997   0.979   4.672   3.947
 3886SOL    HW222998   0.956   4.551   4.054
 3887SOL     OW22999   1.014   3.960   4.695
 3887SOL    HW123000   1.006   3.924   4.602
 3887SOL    HW223001   1.012   3.884   4.760
 3888SOL     OW23002   1.709   4.109   5.105
 3888SOL    HW123003   1.782   4.178   5.109
 3888SOL    HW223004   1.737   4.034   5.046
 3889SOL     OW23005   0.105   4.737   5.450
 3889SOL    HW123006   0.028   4.704   5.504
 3889SOL    HW223007   0.190   4.707   5.492
 3890SOL     OW23008   0.672   3.927   5.213
 3890SOL    HW123009   0.762   3.911   5.173
 3890SOL    HW223010   0.680   3.932   5.312
 3891SOL     OW23011   0.075   4.069   3.757
 3891SOL    HW123012  -0.017   4.041   3.728
 3891SOL    HW223013   0.106   4.146   3.701
 3892SOL     OW23014   1.440   4.580   5.122
 3892SOL    HW123015   1.383   4.632   5.059
 3892SOL    HW223016   1.536   4.592   5.098
 3893SOL     OW23017   0.072   3.890   4.042
 3893SOL    HW123018   0.055   3.973   3.988
 3893SOL    HW223019   0.162   3.853   4.020
 3894SOL     OW23020   1.183   5.059   3.843
 3894SOL    HW123021   1.084   5.048   3.845
 3894SOL    HW223022   1.217   5.074   3.936
 3895SOL     OW23023   0.613   4.566   5.155
 3895SOL    HW123024   0.669   4.647   5.138
 3895SOL    HW223025   0.672   4.486   5.158
 3896SOL     OW23026   0.716   4.289   5.432
 3896SOL    HW123027   0.735   4.354   5.506
 3896SOL    HW223028   0.776   4.209   5.441
 3897SOL     OW23029   1.674   4.607   4.978
 3897SOL    HW123030   1.647   4.518   4.941
 3897SOL    HW223031   1.675   4.675   4.905
 3898SOL     OW23032   1.225   4.049   4.173
 3898SOL    HW123033   1.290   3.975   4.162
 3898SOL    HW223034   1.245   4.099   4.257
 3899SOL     OW23035   0.594   4.469   4.376
 3899SOL    HW123036   0.644   4.554   4.357
 3899SOL    HW223037   0.506   4.471   4.328
 3900SOL     OW23038   1.777   4.066   5.366
 3900SOL    HW123039   1.760   4.097   5.272
 3900SOL    HW223040   1.693   4.029   5.404
 3901SOL     OW23041   1.730   4.658   5.241
 3901SOL    HW123042   1.768   4.749   5.256
 3901SOL    HW223043   1.722   4.641   5.142
 3902SOL     OW23044   0.859   4.680   4.585
 3902SOL    HW123045   0.913   4.611   4.633
 3902SOL    HW223046   0.827   4.749   4.651
 3903SOL     OW23047   1.083   4.708   3.811
 3903SOL    HW123048   1.060   4.761   3.729
 3903SOL    HW223049   1.164   4.652   3.792
 3904SOL     OW23050   0.079   4.964   4.377
 3904SOL    HW123051   0.078   4.917   4.465
 3904SOL    HW223052   0.161   4.936   4.326
 3905SOL     OW23053   1.824   3.916   4.951
 3905SOL    HW123054   1.820   3.826   4.995
 3905SOL    HW223055   1.827   3.905   4.852
 3906SOL     OW23056   0.428   4.148   4.244
 3906SOL    HW123057   0.458   4.076   4.182
 3906SOL    HW223058   0.389   4.108   4.327
 3907SOL     OW23059   0.317   4.271   5.004
 3907SOL    HW123060   0.355   4.212   5.076
 3907SOL    HW223061   0.357   4.245   4.916
 3908SOL     OW23062   1.424   3.938   4.836
 3908SOL    HW123063   1.476   3.873   4.891
 3908SOL    HW223064   1.375   4.001   4.897
 3909SOL     OW23065   1.001   3.758   4.878
 3909SOL    HW123066   0.938   3.686   4.847
 3909SOL    HW223067   1.094   3.722   4.878
 3910SOL     OW23068   1.352   3.776   3.892
 3910SOL    HW123069   1.387   3.735   3.808
 3910SOL    HW223070   1.262   3.738   3.912
 3911SOL     OW23071   1.300   4.177   4.415
 3911SOL    HW123072   1.241   4.257   4.419
 3911SOL    HW223073   1.315   4.142   4.508
 3912SOL     OW23074   1.593   3.945   4.606
 3912SOL    HW123075   1.509   3.944   4.660
 3912SOL    HW223076   1.595   4.028   4.550
 3913SOL     OW23077   0.039   4.801   4.024
 3913SOL    HW123078   0.138   4.790   4.015
 3913SOL    HW223079  -0.001   4.715   4.056
 3914SOL     OW23080   0.230   4.352   5.699
 3914SOL    HW123081   0.137   4.350   5.736
 3914SOL    HW223082   0.231   4.313   5.607
 3915SOL     OW23083   0.225   3.999   6.582
 3915SOL    HW123084   0.260   3.982   6.674
 3915SOL    HW223085   0.137   3.954   6.570
 3916SOL     OW23086   0.019   4.092   6.233
 3916SOL    HW123087  -0.063   4.135   6.272
 3916SOL    HW223088  -0.009   4.019   6.170
 3917SOL     OW23089   1.135   4.427   6.303
 3917SOL    HW123090   1.192   4.505   6.278
 3917SOL    HW223091   1.075   4.453   6.379
 3918SOL     OW23092   1.755   4.331   5.817
 3918SOL    HW123093   1.743   4.318   5.718
 3918SOL    HW223094   1.725   4.250   5.866
 3919SOL     OW23095   0.768   4.868   6.609
 3919SOL    HW123096   0.690   4.885   6.669
 3919SOL    HW223097   0.802   4.955   6.573
 3920SOL     OW23098   0.850   4.522   7.409
 3920SOL    HW123099   0.846   4.598   7.474
 3920SOL    HW223100   0.872   4.558   7.318
 3921SOL     OW23101   0.685   4.736   6.251
 3921SOL    HW123102   0.754   4.720   6.321
 3921SOL    HW223103   0.612   4.793   6.289
 3922SOL     OW23104   0.438   4.116   7.085
 3922SOL    HW123105   0.520   4.060   7.094
 3922SOL    HW223106   0.357   4.058   7.089
 3923SOL     OW23107   1.603   4.171   6.323
 3923SOL    HW123108   1.529   4.217   6.273
 3923SOL    HW223109   1.654   4.239   6.376
 3924SOL     OW23110   0.240   4.815   6.472
 3924SOL    HW123111   0.254   4.731   6.524
 3924SOL    HW223112   0.185   4.879   6.527
 3925SOL     OW23113   0.606   4.688   5.709
 3925SOL    HW123114   0.613   4.772   5.655
 3925SOL    HW223115   0.652   4.701   5.797
 3926SOL     OW23116   1.594   3.838   7.066
 3926SOL    HW123117   1.576   3.905   6.994
 3926SOL    HW223118   1.591   3.884   7.155
 3927SOL     OW23119   0.122   4.367   6.149
 3927SOL    HW123120   0.077   4.279   6.166
 3927SOL    HW223121   0.121   4.421   6.233
 3928SOL     OW23122   1.689   4.646   6.198
 3928SOL    HW123123   1.784   4.617   6.206
 3928SOL    HW223124   1.681   4.711   6.123
 3929SOL     OW23125   0.113   4.461   7.183
 3929SOL    HW123126   0.201   4.448   7.228
 3929SOL    HW223127   0.100   4.558   7.161
 3930SOL     OW23128   0.809   3.728   6.088
 3930SOL    HW123129   0.849   3.819   6.079
 3930SOL    HW223130   0.709   3.736   6.094
 3931SOL     OW23131   0.197   4.700   6.850
 3931SOL    HW123132   0.286   4.655   6.836
 3931SOL    HW223133   0.124   4.635   6.831
 3932SOL     OW23134   1.525   4.723   5.776
 3932SOL    HW123135   1.462   4.647   5.789
 3932SOL    HW223136   1.573   4.741   5.862
 3933SOL     OW23137   0.317   3.975   7.387
 3933SOL    HW123138   0.388   4.046   7.393
 3933SOL    HW223139   0.229   4.014   7.415
 3934SOL     OW23140   0.598   4.453   5.856
 3934SOL    HW123141   0.622   4.522   5.788
 3934SOL    HW223142   0.520   4.486   5.910
 3935SOL     OW23143   1.281   4.069   6.530
 3935SOL    HW123144   1.195   4.019   6.517
 3935SOL    HW223145   1.343   4.015   6.586
 3936SOL     OW23146   0.807   4.329   7.051
 3936SOL    HW123147   0.760   4.326   7.140
 3936SOL    HW223148   0.756   4.274   6.985
 3937SOL     OW23149   1.394   4.193   7.260
 3937SOL    HW123150   1.374   4.236   7.348
 3937SOL    HW223151   1.472   4.131   7.269
 3938SOL     OW23152   0.973   4.614   7.158
 3938SOL    HW123153   1.019   4.530   7.129
 3938SOL    HW223154   0.917   4.648   7.083
 3939SOL     OW23155   0.991   4.134   6.828
 3939SOL    HW123156   0.914   4.168   6.882
 3939SOL    HW223157   0.957   4.083   6.749
 3940SOL     OW23158   1.041   4.425   6.015
 3940SOL    HW123159   1.067   4.421   6.111
 3940SOL    HW223160   0.956   4.374   6.001
 3941SOL     OW23161   0.076   4.535   6.375
 3941SOL    HW123162   0.175   4.523   6.384
 3941SOL    HW223163   0.052   4.630   6.396
 3942SOL     OW23164   0.865   4.072   5.781
 3942SOL    HW123165   0.924   4.135   5.732
 3942SOL    HW223166   0.884   3.978   5.752
 3943SOL     OW23167   1.719   4.309   7.417
 3943SOL    HW123168   1.693   4.398   7.381
 3943SOL    HW223169   1.717   4.241   7.344
 3944SOL     OW23170   0.550   3.920   6.471
 3944SOL    HW123171   0.545   3.915   6.571
 3944SOL    HW223172   0.552   4.016   6.442
 3945SOL     OW23173   1.458   4.459   6.314
 3945SOL    HW123174   1.453   4.394   6.389
 3945SOL    HW223175   1.538   4.518   6.327
 3946SOL     OW23176   0.202   4.009   7.084
 3946SOL    HW123177   0.122   4.069   7.071
 3946SOL    HW223178   0.192   3.960   7.170
 3947SOL     OW23179   1.400   3.831   6.012
 3947SOL    HW123180   1.376   3.794   5.922
 3947SOL    HW223181   1.499   3.847   6.016
 3948SOL     OW23182   0.382   4.424   6.066
 3948SOL    HW123183   0.427   4.334   6.063
 3948SOL    HW223184   0.288   4.413   6.099
 3949SOL     OW23185   1.547   3.946   7.315
 3949SOL    HW123186   1.542   3.983   7.407
 3949SOL    HW223187   1.475   3.877   7.303
 3950SOL     OW23188   0.614   3.846   5.703
 3950SOL    HW123189   0.712   3.824   5.710
 3950SOL    HW223190   0.583   3.829   5.610
 3951SOL     OW23191   0.781   3.988   7.335
 3951SOL    HW123192   0.848   3.927   7.378
 3951SOL    HW223193   0.708   4.007   7.400
 3952SOL     OW23194   1.351   4.314   7.019
 3952SOL    HW123195   1.379   4.271   7.104
 3952SOL    HW223196   1.376   4.410   7.020
 3953SOL     OW23197   0.922   4.227   6.485
 3953SOL    HW123198   0.897   4.218   6.389
 3953SOL    HW223199   0.970   4.145   6.516
 3954SOL     OW23200   0.539   3.788   6.098
 3954SOL    HW123201   0.458   3.789   6.156
 3954SOL    HW223202   0.542   3.871   6.043
 3955SOL     OW23203   0.297   3.759   5.757
 3955SOL    HW123204   0.346   3.843   5.736
 3955SOL    HW223205   0.359   3.694   5.802
 3956SOL     OW23206   0.935   3.960   6.066
 3956SOL    HW123207   0.887   4.001   5.988
 3956SOL    HW223208   1.034   3.958   6.047
 3957SOL     OW23209   1.076   4.407   7.050
 3957SOL    HW123210   0.996   4.346   7.053
 3957SOL    HW223211   1.157   4.354   7.026
 3958SOL     OW23212   1.032   4.273   5.602
 3958SOL    HW123213   0.991   4.355   5.563
 3958SOL    HW223214   1.096   4.299   5.675
 3959SOL     OW23215   0.078   4.280   6.972
 3959SOL    HW123216   0.170   4.279   6.931
 3959SOL    HW223217   0.072   4.354   7.039
 3960SOL     OW23218   0.561   3.946   6.733
 3960SOL    HW123219   0.599   3.862   6.770
 3960SOL    HW223220   0.473   3.965   6.777
 3961SOL     OW23221   0.866   4.178   6.228
 3961SOL    HW123222   0.834   4.250   6.166
 3961SOL    HW223223   0.890   4.097   6.175
 3962SOL     OW23224   1.017   3.763   6.339
 3962SOL    HW123225   0.945   3.768   6.270
 3962SOL    HW223226   0.993   3.694   6.408
 3963SOL     OW23227   1.429   4.897   6.453
 3963SOL    HW123228   1.374   4.813   6.446
 3963SOL    HW223229   1.455   4.926   6.361
 3964SOL     OW23230   1.466   4.314   6.578
 3964SOL    HW123231   1.436   4.219   6.585
 3964SOL    HW223232   1.539   4.330   6.644
 3965SOL     OW23233   1.857   4.557   5.963
 3965SOL    HW123234   1.899   4.493   6.027
 3965SOL    HW223235   1.819   4.506   5.885
 3966SOL     OW23236   1.390   4.299   5.664
 3966SOL    HW123237   1.336   4.278   5.745
 3966SOL    HW223238   1.481   4.258   5.673
 3967SOL     OW23239   0.527   3.980   5.914
 3967SOL    HW123240   0.554   3.921   5.839
 3967SOL    HW223241   0.527   4.075   5.883
 3968SOL     OW23242   1.638   4.823   6.665
 3968SOL    HW123243   1.643   4.904   6.724
 3968SOL    HW223244   1.552   4.825   6.614
 3969SOL     OW23245   0.915   3.813   6.988
 3969SOL    HW123246   0.940   3.793   6.893
 3969SOL    HW223247   0.987   3.869   7.030
 3970SOL     OW23248   0.410   4.537   6.837
 3970SOL    HW123249   0.496   4.549   6.887
 3970SOL    HW223250   0.368   4.450   6.864
 3971SOL     OW23251   1.274   4.110   6.848
 3971SOL    HW123252   1.295   4.184   6.912
 3971SOL    HW223253   1.185   4.127   6.805
 3972SOL     OW23254   0.566   4.261   6.451
 3972SOL    HW123255   0.578   4.327   6.377
 3972SOL    HW223256   0.612   4.295   6.534
 3973SOL     OW23257   1.582   4.363   6.058
 3973SOL    HW123258   1.551   4.424   6.131
 3973SOL    HW223259   1.632   4.415   5.989
 3974SOL     OW23260   0.402   4.475   7.184
 3974SOL    HW123261   0.470   4.530   7.137
 3974SOL    HW223262   0.442   4.387   7.211
 3975SOL     OW23263   1.587   4.503   7.256
 3975SOL    HW123264   1.495   4.541   7.251
 3975SOL    HW223265   1.647   4.550   7.191
 3976SOL     OW23266   1.013   3.829   7.356
 3976SOL    HW123267   1.019   3.914   7.304
 3976SOL    HW223268   1.045   3.753   7.299
 3977SOL     OW23269   0.504   3.774   7.326
 3977SOL    HW123270   0.462   3.717   7.256
 3977SOL    HW223271   0.438   3.843   7.358
 3978SOL     OW23272   0.573   4.594   6.615
 3978SOL    HW123273   0.617   4.683   6.606
 3978SOL    HW223274   0.510   4.594   6.692
 3979SOL     OW23275   1.360   4.586   6.631
 3979SOL    HW123276   1.285   4.586   6.565
 3979SOL    HW223277   1.397   4.494   6.640
 3980SOL     OW23278   1.209   4.249   5.861
 3980SOL    HW123279   1.222   4.165   5.915
 3980SOL    HW223280   1.180   4.323   5.921
 3981SOL     OW23281   0.307   3.937   6.817
 3981SOL    HW123282   0.284   3.974   6.907
 3981SOL    HW223283   0.277   3.842   6.811
 3982SOL     OW23284   0.037   5.034   6.868
 3982SOL    HW123285   0.090   4.985   6.936
 3982SOL    HW223286   0.059   5.132   6.873
 3983SOL     OW23287   0.732   4.358   6.650
 3983SOL    HW123288   0.791   4.332   6.574
 3983SOL    HW223289   0.704   4.454   6.639
 3984SOL     OW23290   1.728   4.659   7.440
 3984SOL    HW123291   1.682   4.652   7.351
 3984SOL    HW223292   1.666   4.703   7.506
 3985SOL     OW23293   0.307   3.787   6.204
 3985SOL    HW123294   0.296   3.881   6.237
 3985SOL    HW223295   0.302   3.724   6.281
 3986SOL     OW23296   1.622   4.091   5.960
 3986SOL    HW123297   1.624   4.015   6.024
 3986SOL    HW223298   1.574   4.168   6.000
 3987SOL     OW23299   1.023   4.490   6.552
 3987SOL    HW123300   1.038   4.511   6.648
 3987SOL    HW223301   0.993   4.395   6.543
 3988SOL     OW23302   0.350   4.622   7.390
 3988SOL    HW123303   0.426   4.666   7.438
 3988SOL    HW223304   0.385   4.575   7.308
 3989SOL     OW23305   1.540   3.998   5.711
 3989SOL    HW123306   1.479   3.923   5.734
 3989SOL    HW223307   1.562   4.050   5.794
 3990SOL     OW23308   1.303   4.562   5.628
 3990SOL    HW123309   1.337   4.469   5.643
 3990SOL    HW223310   1.321   4.589   5.533
 3991SOL     OW23311   0.319   4.534   6.535
 3991SOL    HW123312   0.412   4.570   6.540
 3991SOL    HW223313   0.313   4.449   6.587
 3992SOL     OW23314   0.339   4.233   6.592
 3992SOL    HW123315   0.287   4.150   6.575
 3992SOL    HW223316   0.416   4.238   6.528
 3993SOL     OW23317   1.138   4.104   7.264
 3993SOL    HW123318   1.093   4.167   7.328
 3993SOL    HW223319   1.231   4.135   7.247
 3994SOL     OW23320   1.160   3.931   7.063
 3994SOL    HW123321   1.160   3.995   7.140
 3994SOL    HW223322   1.188   3.979   6.980
 3995SOL     OW23323   1.002   4.520   6.824
 3995SOL    HW123324   1.043   4.488   6.910
 3995SOL    HW223325   0.906   4.493   6.821
 3996SOL     OW23326   0.040   4.268   6.700
 3996SOL    HW123327   0.125   4.235   6.659
 3996SOL    HW223328   0.053   4.283   6.798
 3997SOL     OW23329   0.189   4.244   7.308
 3997SOL    HW123330   0.248   4.204   7.238
 3997SOL    HW223331   0.131   4.315   7.267
 3998SOL     OW23332   1.369   4.674   7.246
 3998SOL    HW123333   1.408   4.763   7.266
 3998SOL    HW223334   1.379   4.654   7.149
 3999SOL     OW23335   0.815   4.296   5.911
 3999SOL    HW123336   0.822   4.207   5.865
 3999SOL    HW223337   0.721   4.330   5.903
 4000SOL     OW23338   1.657   4.328   6.792
 4000SOL    HW123339   1.619   4.259   6.854
 4000SOL    HW223340   1.739   4.292   6.748
 4001SOL     OW23341   0.671   4.188   6.855
 4001SOL    HW123342   0.637   4.099   6.825
 4001SOL    HW223343   0.697   4.242   6.775
 4002SOL     OW23344   0.473   4.224   5.777
 4002SOL    HW123345   0.534   4.304   5.781
 4002SOL    HW223346   0.378   4.255   5.784
 4003SOL     OW23347   0.159   4.861   7.052
 4003SOL    HW123348   0.181   4.800   7.128
 4003SOL    HW223349   0.169   4.812   6.966
 4004SOL     OW23350   1.347   4.783   6.820
 4004SOL    HW123351   1.371   4.720   6.746
 4004SOL    HW223352   1.257   4.823   6.802
 4005SOL     OW23353   1.302   4.579   5.895
 4005SOL    HW123354   1.216   4.548   5.937
 4005SOL    HW223355   1.298   4.565   5.796
 4006SOL     OW23356   1.726   3.859   6.109
 4006SOL    HW123357   1.799   3.842   6.042
 4006SOL    HW223358   1.695   3.772   6.147
 4007SOL     OW23359   1.280   4.651   6.258
 4007SOL    HW123360   1.340   4.570   6.260
 4007SOL    HW223361   1.320   4.720   6.198
 4008SOL     OW23362   1.841   3.899   6.549
 4008SOL    HW123363   1.880   3.814   6.513
 4008SOL    HW223364   1.743   3.901   6.530
 4009SOL     OW23365   0.263   4.050   6.306
 4009SOL    HW123366   0.184   4.101   6.272
 4009SOL    HW223367   0.254   4.035   6.404
 4010SOL     OW23368   0.916   4.634   5.877
 4010SOL    HW123369   0.979   4.672   5.809
 4010SOL    HW223370   0.956   4.551   5.916
 4011SOL     OW23371   1.014   3.960   6.557
 4011SOL    HW123372   1.006   3.924   6.464
 4011SOL    HW223373   1.012   3.884   6.622
 4012SOL     OW23374   1.709   4.109   6.967
 4012SOL    HW123375   1.782   4.178   6.971
 4012SOL    HW223376   1.737   4.034   6.908
 4013SOL     OW23377   0.105   4.737   7.312
 4013SOL    HW123378   0.028   4.704   7.366
 4013SOL    HW223379   0.190   4.707   7.354
 4014SOL     OW23380   0.672   3.927   7.075
 4014SOL    HW123381   0.762   3.911   7.035
 4014SOL    HW223382   0.680   3.932   7.174
 4015SOL     OW23383   0.075   4.069   5.619
 4015SOL    HW123384  -0.017   4.041   5.590
 4015SOL    HW223385   0.106   4.146   5.563
 4016SOL     OW23386   1.440   4.580   6.984
 4016SOL    HW123387   1.383   4.632   6.921
 4016SOL    HW223388   1.536   4.592   6.960
 4017SOL     OW23389   0.072   3.890   5.904
 4017SOL    HW123390   0.055   3.973   5.850
 4017SOL    HW223391   0.162   3.853   5.882
 4018SOL     OW23392   1.183   5.059   5.705
 4018SOL    HW123393   1.084   5.048   5.707
 4018SOL    HW223394   1.217   5.074   5.798
 4019SOL     OW23395   0.613   4.566   7.017
 4019SOL    HW123396   0.669   4.647   7.000
 4019SOL    HW223397   0.672   4.486   7.020
 4020SOL     OW23398   0.716   4.289   7.294
 4020SOL    HW123399   0.735   4.354   7.368
 4020SOL    HW223400   0.776   4.209   7.303
 4021SOL     OW23401   1.674   4.607   6.840
 4021SOL    HW123402   1.647   4.518   6.803
 4021SOL    HW223403   1.675   4.675   6.767
 4022SOL     OW23404   1.225   4.049   6.035
 4022SOL    HW123405   1.290   3.975   6.024
 4022SOL    HW223406   1.245   4.099   6.119
 4023SOL     OW23407   0.594   4.469   6.238
 4023SOL    HW123408   0.644   4.554   6.219
 4023SOL    HW223409   0.506   4.471   6.190
 4024SOL     OW23410   1.777   4.066   7.228
 4024SOL    HW123411   1.760   4.097   7.134
 4024SOL    HW223412   1.693   4.029   7.266
 4025SOL     OW23413   1.730   4.658   7.103
 4025SOL    HW123414   1.768   4.749   7.118
 4025SOL    HW223415   1.722   4.641   7.004
 4026SOL     OW23416   0.859   4.680   6.447
 4026SOL    HW123417   0.913   4.611   6.495
 4026SOL    HW223418   0.827   4.749   6.513
 4027SOL     OW23419   1.083   4.708   5.673
 4027SOL    HW123420   1.060   4.761   5.591
 4027SOL    HW223421   1.164   4.652   5.654
 4028SOL     OW23422   0.079   4.964   6.239
 4028SOL    HW123423   0.078   4.917   6.327
 4028SOL    HW223424   0.161   4.936   6.188
 4029SOL     OW23425   1.824   3.916   6.813
 4029SOL    HW123426   1.820   3.826   6.857
 4029SOL    HW223427   1.827   3.905   6.714
 4030SOL     OW23428   0.428   4.148   6.106
 4030SOL    HW123429   0.458   4.076   6.044
 4030SOL    HW223430   0.389   4.108   6.189
 4031SOL     OW23431   0.317   4.271   6.866
 4031SOL    HW123432   0.355   4.212   6.938
 4031SOL    HW223433   0.357   4.245   6.778
 4032SOL     OW23434   1.424   3.938   6.698
 4032SOL    HW123435   1.476   3.873   6.753
 4032SOL    HW223436   1.375   4.001   6.759
 4033SOL     OW23437   1.001   3.758   6.740
 4033SOL    HW123438   0.938   3.686   6.709
 4033SOL    HW223439   1.094   3.722   6.740
 4034SOL     OW23440   1.352   3.776   5.754
 4034SOL    HW123441   1.387   3.735   5.670
 4034SOL    HW223442   1.262   3.738   5.774
 4035SOL     OW23443   1.300   4.177   6.277
 4035SOL    HW123444   1.241   4.257   6.281
 4035SOL    HW223445   1.315   4.142   6.370
 4036SOL     OW23446   1.593   3.945   6.468
 4036SOL    HW123447   1.509   3.944   6.522
 4036SOL    HW223448   1.595   4.028   6.412
 4037SOL     OW23449   0.039   4.801   5.886
 4037SOL    HW123450   0.138   4.790   5.877
 4037SOL    HW223451  -0.001   4.715   5.918
 4038SOL     OW23452   0.230   4.352   7.561
 4038SOL    HW123453   0.137   4.350   7.598
 4038SOL    HW223454   0.231   4.313   7.469
 4039SOL     OW23455   0.225   3.999   8.444
 4039SOL    HW123456   0.260   3.982   8.536
 4039SOL    HW223457   0.137   3.954   8.432
 4040SOL     OW23458   0.019   4.092   8.095
 4040SOL    HW123459  -0.063   4.135   8.134
 4040SOL    HW223460  -0.009   4.019   8.032
 4041SOL     OW23461   1.135   4.427   8.165
 4041SOL    HW123462   1.192   4.505   8.140
 4041SOL    HW223463   1.075   4.453   8.241
 4042SOL     OW23464   1.755   4.331   7.679
 4042SOL    HW123465   1.743   4.318   7.580
 4042SOL    HW223466   1.725   4.250   7.728
 4043SOL     OW23467   0.768   4.868   8.471
 4043SOL    HW123468   0.690   4.885   8.531
 4043SOL    HW223469   0.802   4.955   8.435
 4044SOL     OW23470   0.685   4.736   8.113
 4044SOL    HW123471   0.754   4.720   8.183
 4044SOL    HW223472   0.612   4.793   8.151
 4045SOL     OW23473   0.438   4.116   8.947
 4045SOL    HW123474   0.520   4.060   8.956
 4045SOL    HW223475   0.357   4.058   8.951
 4046SOL     OW23476   1.603   4.171   8.185
 4046SOL    HW123477   1.529   4.217   8.135
 4046SOL    HW223478   1.654   4.239   8.238
 4047SOL     OW23479   0.240   4.815   8.334
 4047SOL    HW123480   0.254   4.731   8.386
 4047SOL    HW223481   0.185   4.879   8.389
 4048SOL     OW23482   0.606   4.688   7.571
 4048SOL    HW123483   0.613   4.772   7.517
 4048SOL    HW223484   0.652   4.701   7.659
 4049SOL     OW23485   0.122   4.367   8.011
 4049SOL    HW123486   0.077   4.279   8.028
 4049SOL    HW223487   0.121   4.421   8.095
 4050SOL     OW23488   1.689   4.646   8.060
 4050SOL    HW123489   1.784   4.617   8.068
 4050SOL    HW223490   1.681   4.711   7.985
 4051SOL     OW23491   0.809   3.728   7.950
 4051SOL    HW123492   0.849   3.819   7.941
 4051SOL    HW223493   0.709   3.736   7.956
 4052SOL     OW23494   1.525   4.723   7.638
 4052SOL    HW123495   1.462   4.647   7.651
 4052SOL    HW223496   1.573   4.741   7.724
 4053SOL     OW23497   0.598   4.453   7.718
 4053SOL    HW123498   0.622   4.522   7.650
 4053SOL    HW223499   0.520   4.486   7.772
 4054SOL     OW23500   1.281   4.069   8.392
 4054SOL    HW123501   1.195   4.019   8.379
 4054SOL    HW223502   1.343   4.015   8.448
 4055SOL     OW23503   0.807   4.329   8.913
 4055SOL    HW123504   0.760   4.326   9.002
 4055SOL    HW223505   0.756   4.274   8.847
 4056SOL     OW23506   1.394   4.193   9.122
 4056SOL    HW123507   1.374   4.236   9.210
 4056SOL    HW223508   1.472   4.131   9.131
 4057SOL     OW23509   0.973   4.614   9.020
 4057SOL    HW123510   1.019   4.530   8.991
 4057SOL    HW223511   0.917   4.648   8.945
 4058SOL     OW23512   0.991   4.134   8.690
 4058SOL    HW123513   0.914   4.168   8.744
 4058SOL    HW223514   0.957   4.083   8.611
 4059SOL     OW23515   1.041   4.425   7.877
 4059SOL    HW123516   1.067   4.421   7.973
 4059SOL    HW223517   0.956   4.374   7.863
 4060SOL     OW23518   0.076   4.535   8.237
 4060SOL    HW123519   0.175   4.523   8.246
 4060SOL    HW223520   0.052   4.630   8.258
 4061SOL     OW23521   0.865   4.072   7.643
 4061SOL    HW123522   0.924   4.135   7.594
 4061SOL    HW223523   0.884   3.978   7.614
 4062SOL     OW23524   0.550   3.920   8.333
 4062SOL    HW123525   0.545   3.915   8.433
 4062SOL    HW223526   0.552   4.016   8.304
 4063SOL     OW23527   1.458   4.459   8.176
 4063SOL    HW123528   1.453   4.394   8.251
 4063SOL    HW223529   1.538   4.518   8.189
 4064SOL     OW23530   0.202   4.009   8.946
 4064SOL    HW123531   0.122   4.069   8.933
 4064SOL    HW223532   0.192   3.960   9.032
 4065SOL     OW23533   1.400   3.831   7.874
 4065SOL    HW123534   1.376   3.794   7.784
 4065SOL    HW223535   1.499   3.847   7.878
 4066SOL     OW23536   0.382   4.424   7.928
 4066SOL    HW123537   0.427   4.334   7.925
 4066SOL    HW223538   0.288   4.413   7.961
 4067SOL     OW23539   0.614   3.846   7.565
 4067SOL    HW123540   0.712   3.824   7.572
 4067SOL    HW223541   0.583   3.829   7.472
 4068SOL     OW23542   0.781   3.988   9.197
 4068SOL    HW123543   0.848   3.927   9.240
 4068SOL    HW223544   0.708   4.007   9.262
 4069SOL     OW23545   1.351   4.314   8.881
 4069SOL    HW123546   1.379   4.271   8.966
 4069SOL    HW223547   1.376   4.410   8.882
 4070SOL     OW23548   0.922   4.227   8.347
 4070SOL    HW123549   0.897   4.218   8.251
 4070SOL    HW223550   0.970   4.145   8.378
 4071SOL     OW23551   0.539   3.788   7.960
 4071SOL    HW123552   0.458   3.789   8.018
 4071SOL    HW223553   0.542   3.871   7.905
 4072SOL     OW23554   0.297   3.759   7.619
 4072SOL    HW123555   0.346   3.843   7.598
 4072SOL    HW223556   0.359   3.694   7.664
 4073SOL     OW23557   0.935   3.960   7.928
 4073SOL    HW123558   0.887   4.001   7.850
 4073SOL    HW223559   1.034   3.958   7.909
 4074SOL     OW23560   1.076   4.407   8.912
 4074SOL    HW123561   0.996   4.346   8.915
 4074SOL    HW223562   1.157   4.354   8.888
 4075SOL     OW23563   1.032   4.273   7.464
 4075SOL    HW123564   0.991   4.355   7.425
 4075SOL    HW223565   1.096   4.299   7.537
 4076SOL     OW23566   0.078   4.280   8.834
 4076SOL    HW123567   0.170   4.279   8.793
 4076SOL    HW223568   0.072   4.354   8.901
 4077SOL     OW23569   0.561   3.946   8.595
 4077SOL    HW123570   0.599   3.862   8.632
 4077SOL    HW223571   0.473   3.965   8.639
 4078SOL     OW23572   0.866   4.178   8.090
 4078SOL    HW123573   0.834   4.250   8.028
 4078SOL    HW223574   0.890   4.097   8.037
 4079SOL     OW23575   1.017   3.763   8.201
 4079SOL    HW123576   0.945   3.768   8.132
 4079SOL    HW223577   0.993   3.694   8.270
 4080SOL     OW23578   1.429   4.897   8.315
 4080SOL    HW123579   1.374   4.813   8.308
 4080SOL    HW223580   1.455   4.926   8.223
 4081SOL     OW23581   1.466   4.314   8.440
 4081SOL    HW123582   1.436   4.219   8.447
 4081SOL    HW223583   1.539   4.330   8.506
 4082SOL     OW23584   1.857   4.557   7.825
 4082SOL    HW123585   1.899   4.493   7.889
 4082SOL    HW223586   1.819   4.506   7.747
 4083SOL     OW23587   1.390   4.299   7.526
 4083SOL    HW123588   1.336   4.278   7.607
 4083SOL    HW223589   1.481   4.258   7.535
 4084SOL     OW23590   0.527   3.980   7.776
 4084SOL    HW123591   0.554   3.921   7.701
 4084SOL    HW223592   0.527   4.075   7.745
 4085SOL     OW23593   1.638   4.823   8.527
 4085SOL    HW123594   1.643   4.904   8.586
 4085SOL    HW223595   1.552   4.825   8.476
 4086SOL     OW23596   0.915   3.813   8.850
 4086SOL    HW123597   0.940   3.793   8.755
 4086SOL    HW223598   0.987   3.869   8.892
 4087SOL     OW23599   0.410   4.537   8.699
 4087SOL    HW123600   0.496   4.549   8.749
 4087SOL    HW223601   0.368   4.450   8.726
 4088SOL     OW23602   1.274   4.110   8.710
 4088SOL    HW123603   1.295   4.184   8.774
 4088SOL    HW223604   1.185   4.127   8.667
 4089SOL     OW23605   0.566   4.261   8.313
 4089SOL    HW123606   0.578   4.327   8.239
 4089SOL    HW223607   0.612   4.295   8.396
 4090SOL     OW23608   1.582   4.363   7.920
 4090SOL    HW123609   1.551   4.424   7.993
 4090SOL    HW223610   1.632   4.415   7.851
 4091SOL     OW23611   0.402   4.475   9.046
 4091SOL    HW123612   0.470   4.530   8.999
 4091SOL    HW223613   0.442   4.387   9.073
 4092SOL     OW23614   1.013   3.829   9.218
 4092SOL    HW123615   1.019   3.914   9.166
 4092SOL    HW223616   1.045   3.753   9.161
 4093SOL     OW23617   0.504   3.774   9.188
 4093SOL    HW123618   0.462   3.717   9.118
 4093SOL    HW223619   0.438   3.843   9.220
 4094SOL     OW23620   0.573   4.594   8.477
 4094SOL    HW123621   0.617   4.683   8.468
 4094SOL    HW223622   0.510   4.594   8.554
 4095SOL     OW23623   1.360   4.586   8.493
 4095SOL    HW123624   1.285   4.586   8.427
 4095SOL    HW223625   1.397   4.494   8.502
 4096SOL     OW23626   1.209   4.249   7.723
 4096SOL    HW123627   1.222   4.165   7.777
 4096SOL    HW223628   1.180   4.323   7.783
 4097SOL     OW23629   0.307   3.937   8.679
 4097SOL    HW123630   0.284   3.974   8.769
 4097SOL    HW223631   0.277   3.842   8.673
 4098SOL     OW23632   0.037   5.034   8.730
 4098SOL    HW123633   0.090   4.985   8.798
 4098SOL    HW223634   0.059   5.132   8.735
 4099SOL     OW23635   0.732   4.358   8.512
 4099SOL    HW123636   0.791   4.332   8.436
 4099SOL    HW223637   0.704   4.454   8.501
 4100SOL     OW23638   1.728   4.659   9.302
 4100SOL    HW123639   1.682   4.652   9.213
 4100SOL    HW223640   1.666   4.703   9.368
 4101SOL     OW23641   0.307   3.787   8.066
 4101SOL    HW123642   0.296   3.881   8.099
 4101SOL    HW223643   0.302   3.724   8.143
 4102SOL     OW23644   1.622   4.091   7.822
 4102SOL    HW123645   1.624   4.015   7.886
 4102SOL    HW223646   1.574   4.168   7.862
 4103SOL     OW23647   1.023   4.490   8.414
 4103SOL    HW123648   1.038   4.511   8.510
 4103SOL    HW223649   0.993   4.395   8.405
 4104SOL     OW23650   1.540   3.998   7.573
 4104SOL    HW123651   1.479   3.923   7.596
 4104SOL    HW223652   1.562   4.050   7.656
 4105SOL     OW23653   1.303   4.562   7.490
 4105SOL    HW123654   1.337   4.469   7.505
 4105SOL    HW223655   1.321   4.589   7.395
 4106SOL     OW23656   0.319   4.534   8.397
 4106SOL    HW123657   0.412   4.570   8.402
 4106SOL    HW223658   0.313   4.449   8.449
 4107SOL     OW23659   0.339   4.233   8.454
 4107SOL    HW123660   0.287   4.150   8.437
 4107SOL    HW223661   0.416   4.238   8.390
 4108SOL     OW23662   1.138   4.104   9.126
 4108SOL    HW123663   1.093   4.167   9.190
 4108SOL    HW223664   1.231   4.135   9.109
 4109SOL     OW23665   1.160   3.931   8.925
 4109SOL    HW123666   1.160   3.995   9.002
 4109SOL    HW223667   1.188   3.979   8.842
 4110SOL     OW23668   1.002   4.520   8.686
 4110SOL    HW123669   1.043   4.488   8.772
 4110SOL    HW223670   0.906   4.493   8.683
 4111SOL     OW23671   0.040   4.268   8.562
 4111SOL    HW123672   0.125   4.235   8.521
 4111SOL    HW223673   0.053   4.283   8.660
 4112SOL     OW23674   0.815   4.296   7.773
 4112SOL    HW123675   0.822   4.207   7.727
 4112SOL    HW223676   0.721   4.330   7.765
 4113SOL     OW23677   1.657   4.328   8.654
 4113SOL    HW123678   1.619   4.259   8.716
 4113SOL    HW223679   1.739   4.292   8.610
 4114SOL     OW23680   0.671   4.188   8.717
 4114SOL    HW123681   0.637   4.099   8.687
 4114SOL    HW223682   0.697   4.242   8.637
 4115SOL     OW23683   0.473   4.224   7.639
 4115SOL    HW123684   0.534   4.304   7.643
 4115SOL    HW223685   0.378   4.255   7.646
 4116SOL     OW23686   0.159   4.861   8.914
 4116SOL    HW123687   0.181   4.800   8.990
 4116SOL    HW223688   0.169   4.812   8.828
 4117SOL     OW23689   1.347   4.783   8.682
 4117SOL    HW123690   1.371   4.720   8.608
 4117SOL    HW223691   1.257   4.823   8.664
 4118SOL     OW23692   1.302   4.579   7.757
 4118SOL    HW123693   1.216   4.548   7.799
 4118SOL    HW223694   1.298   4.565   7.658
 4119SOL     OW23695   1.726   3.859   7.971
 4119SOL    HW123696   1.799   3.842   7.904
 4119SOL    HW223697   1.695   3.772   8.009
 4120SOL     OW23698   1.280   4.651   8.120
 4120SOL    HW123699   1.340   4.570   8.122
 4120SOL    HW223700   1.320   4.720   8.060
 4121SOL     OW23701   1.841   3.899   8.411
 4121SOL    HW123702   1.880   3.814   8.375
 4121SOL    HW223703   1.743   3.901   8.392
 4122SOL     OW23704   0.263   4.050   8.168
 4122SOL    HW123705   0.184   4.101   8.134
 4122SOL    HW223706   0.254   4.035   8.266
 4123SOL     OW23707   0.916   4.634   7.739
 4123SOL    HW123708   0.979   4.672   7.671
 4123SOL    HW223709   0.956   4.551   7.778
 4124SOL     OW23710   1.014   3.960   8.419
 4124SOL    HW123711   1.006   3.924   8.326
 4124SOL    HW223712   1.012   3.884   8.484
 4125SOL     OW23713   1.709   4.109   8.829
 4125SOL    HW123714   1.782   4.178   8.833
 4125SOL    HW223715   1.737   4.034   8.770
 4126SOL     OW23716   0.672   3.927   8.937
 4126SOL    HW123717   0.762   3.911   8.897
 4126SOL    HW223718   0.680   3.932   9.036
 4127SOL     OW23719   0.075   4.069   7.481
 4127SOL    HW123720  -0.017   4.041   7.452
 4127SOL    HW223721   0.106   4.146   7.425
 4128SOL     OW23722   0.072   3.890   7.766
 4128SOL    HW123723   0.055   3.973   7.712
 4128SOL    HW223724   0.162   3.853   7.744
 4129SOL     OW23725   1.183   5.059   7.567
 4129SOL    HW123726   1.084   5.048   7.569
 4129SOL    HW223727   1.217   5.074   7.660
 4130SOL     OW23728   0.613   4.566   8.879
 4130SOL    HW123729   0.669   4.647   8.862
 4130SOL    HW223730   0.672   4.486   8.882
 4131SOL     OW23731   0.716   4.289   9.156
 4131SOL    HW123732   0.735   4.354   9.230
 4131SOL    HW223733   0.776   4.209   9.165
 4132SOL     OW23734   1.225   4.049   7.897
 4132SOL    HW123735   1.290   3.975   7.886
 4132SOL    HW223736   1.245   4.099   7.981
 4133SOL     OW23737   0.594   4.469   8.100
 4133SOL    HW123738   0.644   4.554   8.081
 4133SOL    HW223739   0.506   4.471   8.052
 4134SOL     OW23740   0.859   4.680   8.309
 4134SOL    HW123741   0.913   4.611   8.357
 4134SOL    HW223742   0.827   4.749   8.375
 4135SOL     OW23743   1.083   4.708   7.535
 4135SOL    HW123744   1.060   4.761   7.453
 4135SOL    HW223745   1.164   4.652   7.516
 4136SOL     OW23746   0.079   4.964   8.101
 4136SOL    HW123747   0.078   4.917   8.189
 4136SOL    HW223748   0.161   4.936   8.050
 4137SOL     OW23749   1.824   3.916   8.675
 4137SOL    HW123750   1.820   3.826   8.719
 4137SOL    HW223751   1.827   3.905   8.576
 4138SOL     OW23752   0.428   4.148   7.968
 4138SOL    HW123753   0.458   4.076   7.906
 4138SOL    HW223754   0.389   4.108   8.051
 4139SOL     OW23755   0.317   4.271   8.728
 4139SOL    HW123756   0.355   4.212   8.800
 4139SOL    HW223757   0.357   4.245   8.640
 4140SOL     OW23758   1.424   3.938   8.560
 4140SOL    HW123759   1.476   3.873   8.615
 4140SOL    HW223760   1.375   4.001   8.621
 4141SOL     OW23761   1.001   3.758   8.602
 4141SOL    HW123762   0.938   3.686   8.571
 4141SOL    HW223763   1.094   3.722   8.602
 4142SOL     OW23764   1.352   3.776   7.616
 4142SOL    HW123765   1.387   3.735   7.532
 4142SOL    HW223766   1.262   3.738   7.636
 4143SOL     OW23767   1.300   4.177   8.139
 4143SOL    HW123768   1.241   4.257   8.143
 4143SOL    HW223769   1.315   4.142   8.232
 4144SOL     OW23770   1.593   3.945   8.330
 4144SOL    HW123771   1.509   3.944   8.384
 4144SOL    HW223772   1.595   4.028   8.274
 4145SOL     OW23773   0.039   4.801   7.748
 4145SOL    HW123774   0.138   4.790   7.739
 4145SOL    HW223775  -0.001   4.715   7.780
 4146SOL     OW23776   0.225   3.999  10.306
 4146SOL    HW123777   0.260   3.982  10.398
 4146SOL    HW223778   0.137   3.954  10.294
 4147SOL     OW23779   1.135   4.427  10.027
 4147SOL    HW123780   1.192   4.505  10.002
 4147SOL    HW223781   1.075   4.453  10.103
 4148SOL     OW23782   0.438   4.116  10.809
 4148SOL    HW123783   0.520   4.060  10.818
 4148SOL    HW223784   0.357   4.058  10.813
 4149SOL     OW23785   1.689   4.646   9.922
 4149SOL    HW123786   1.784   4.617   9.930
 4149SOL    HW223787   1.681   4.711   9.847
 4150SOL     OW23788   0.317   3.975  11.111
 4150SOL    HW123789   0.388   4.046  11.117
 4150SOL    HW223790   0.229   4.014  11.139
 4151SOL     OW23791   1.281   4.069  10.254
 4151SOL    HW123792   1.195   4.019  10.241
 4151SOL    HW223793   1.343   4.015  10.310
 4152SOL     OW23794   1.394   4.193  10.984
 4152SOL    HW123795   1.374   4.236  11.072
 4152SOL    HW223796   1.472   4.131  10.993
 4153SOL     OW23797   0.076   4.535  10.099
 4153SOL    HW123798   0.175   4.523  10.108
 4153SOL    HW223799   0.052   4.630  10.120
 4154SOL     OW23800   1.458   4.459  10.038
 4154SOL    HW123801   1.453   4.394  10.113
 4154SOL    HW223802   1.538   4.518  10.051
 4155SOL     OW23803   1.547   3.946  11.039
 4155SOL    HW123804   1.542   3.983  11.131
 4155SOL    HW223805   1.475   3.877  11.027
 4156SOL     OW23806   0.614   3.846   9.427
 4156SOL    HW123807   0.712   3.824   9.434
 4156SOL    HW223808   0.583   3.829   9.334
 4157SOL     OW23809   0.922   4.227  10.209
 4157SOL    HW123810   0.897   4.218  10.113
 4157SOL    HW223811   0.970   4.145  10.240
 4158SOL     OW23812   0.297   3.759   9.481
 4158SOL    HW123813   0.346   3.843   9.460
 4158SOL    HW223814   0.359   3.694   9.526
 4159SOL     OW23815   1.032   4.273   9.326
 4159SOL    HW123816   0.991   4.355   9.287
 4159SOL    HW223817   1.096   4.299   9.399
 4160SOL     OW23818   0.561   3.946  10.457
 4160SOL    HW123819   0.599   3.862  10.494
 4160SOL    HW223820   0.473   3.965  10.501
 4161SOL     OW23821   1.857   4.557   9.687
 4161SOL    HW123822   1.899   4.493   9.751
 4161SOL    HW223823   1.819   4.506   9.609
 4162SOL     OW23824   1.390   4.299   9.388
 4162SOL    HW123825   1.336   4.278   9.469
 4162SOL    HW223826   1.481   4.258   9.397
 4163SOL     OW23827   0.402   4.475  10.908
 4163SOL    HW123828   0.470   4.530  10.861
 4163SOL    HW223829   0.442   4.387  10.935
 4164SOL     OW23830   1.587   4.503  10.980
 4164SOL    HW123831   1.495   4.541  10.975
 4164SOL    HW223832   1.647   4.550  10.915
 4165SOL     OW23833   0.504   3.774  11.050
 4165SOL    HW123834   0.462   3.717  10.980
 4165SOL    HW223835   0.438   3.843  11.082
 4166SOL     OW23836   1.360   4.586  10.355
 4166SOL    HW123837   1.285   4.586  10.289
 4166SOL    HW223838   1.397   4.494  10.364
 4167SOL     OW23839   1.209   4.249   9.585
 4167SOL    HW123840   1.222   4.165   9.639
 4167SOL    HW223841   1.180   4.323   9.645
 4168SOL     OW23842   0.037   5.034  10.592
 4168SOL    HW123843   0.090   4.985  10.660
 4168SOL    HW223844   0.059   5.132  10.597
 4169SOL     OW23845   1.728   4.659  11.164
 4169SOL    HW123846   1.682   4.652  11.075
 4169SOL    HW223847   1.666   4.703  11.230
 4170SOL     OW23848   1.023   4.490  10.276
 4170SOL    HW123849   1.038   4.511  10.372
 4170SOL    HW223850   0.993   4.395  10.267
 4171SOL     OW23851   0.350   4.622  11.114
 4171SOL    HW123852   0.426   4.666  11.162
 4171SOL    HW223853   0.385   4.575  11.032
 4172SOL     OW23854   1.540   3.998   9.435
 4172SOL    HW123855   1.479   3.923   9.458
 4172SOL    HW223856   1.562   4.050   9.518
 4173SOL     OW23857   1.303   4.562   9.352
 4173SOL    HW123858   1.337   4.469   9.367
 4173SOL    HW223859   1.321   4.589   9.257
 4174SOL     OW23860   1.002   4.520  10.548
 4174SOL    HW123861   1.043   4.488  10.634
 4174SOL    HW223862   0.906   4.493  10.545
 4175SOL     OW23863   0.671   4.188  10.579
 4175SOL    HW123864   0.637   4.099  10.549
 4175SOL    HW223865   0.697   4.242  10.499
 4176SOL     OW23866   0.159   4.861  10.776
 4176SOL    HW123867   0.181   4.800  10.852
 4176SOL    HW223868   0.169   4.812  10.690
 4177SOL     OW23869   1.280   4.651   9.982
 4177SOL    HW123870   1.340   4.570   9.984
 4177SOL    HW223871   1.320   4.720   9.922
 4178SOL     OW23872   1.014   3.960  10.281
 4178SOL    HW123873   1.006   3.924  10.188
 4178SOL    HW223874   1.012   3.884  10.346
 4179SOL     OW23875   0.105   4.737  11.036
 4179SOL    HW123876   0.028   4.704  11.090
 4179SOL    HW223877   0.190   4.707  11.078
 4180SOL     OW23878   0.672   3.927  10.799
 4180SOL    HW123879   0.762   3.911  10.759
 4180SOL    HW223880   0.680   3.932  10.898
 4181SOL     OW23881   0.072   3.890   9.628
 4181SOL    HW123882   0.055   3.973   9.574
 4181SOL    HW223883   0.162   3.853   9.606
 4182SOL     OW23884   0.613   4.566  10.741
 4182SOL    HW123885   0.669   4.647  10.724
 4182SOL    HW223886   0.672   4.486  10.744
 4183SOL     OW23887   1.225   4.049   9.759
 4183SOL    HW123888   1.290   3.975   9.748
 4183SOL    HW223889   1.245   4.099   9.843
 4184SOL     OW23890   0.859   4.680  10.171
 4184SOL    HW123891   0.913   4.611  10.219
 4184SOL    HW223892   0.827   4.749  10.237
 4185SOL     OW23893   0.079   4.964   9.963
 4185SOL    HW123894   0.078   4.917  10.051
 4185SOL    HW223895   0.161   4.936   9.912
 4186SOL     OW23896   1.352   3.776   9.478
 4186SOL    HW123897   1.387   3.735   9.394
 4186SOL    HW223898   1.262   3.738   9.498
 4187SOL     OW23899   1.300   4.177  10.001
 4187SOL    HW123900   1.241   4.257  10.005
 4187SOL    HW223901   1.315   4.142  10.094
 4188SOL     OW23902   0.039   4.801   9.610
 4188SOL    HW123903   0.138   4.790   9.601
 4188SOL    HW223904  -0.001   4.715   9.642
 4189SOL     OW23905   0.230   4.352  11.285
 4189SOL    HW123906   0.137   4.350  11.322
 4189SOL    HW223907   0.231   4.313  11.193
 4190SOL     OW23908   1.135   4.427  11.889
 4190SOL    HW123909   1.192   4.505  11.864
 4190SOL    HW223910   1.075   4.453  11.965
 4191SOL     OW23911   0.850   4.522  12.995
 4191SOL    HW123912   0.846   4.598  13.060
 4191SOL    HW223913   0.872   4.558  12.904
 4192SOL     OW23914   0.606   4.688  11.295
 4192SOL    HW123915   0.613   4.772  11.241
 4192SOL    HW223916   0.652   4.701  11.383
 4193SOL     OW23917   1.594   3.838  12.652
 4193SOL    HW123918   1.576   3.905  12.580
 4193SOL    HW223919   1.591   3.884  12.741
 4194SOL     OW23920   0.122   4.367  11.735
 4194SOL    HW123921   0.077   4.279  11.752
 4194SOL    HW223922   0.121   4.421  11.819
 4195SOL     OW23923   0.598   4.453  11.442
 4195SOL    HW123924   0.622   4.522  11.374
 4195SOL    HW223925   0.520   4.486  11.496
 4196SOL     OW23926   0.807   4.329  12.637
 4196SOL    HW123927   0.760   4.326  12.726
 4196SOL    HW223928   0.756   4.274  12.571
 4197SOL     OW23929   1.041   4.425  11.601
 4197SOL    HW123930   1.067   4.421  11.697
 4197SOL    HW223931   0.956   4.374  11.587
 4198SOL     OW23932   0.865   4.072  11.367
 4198SOL    HW123933   0.924   4.135  11.318
 4198SOL    HW223934   0.884   3.978  11.338
 4199SOL     OW23935   0.202   4.009  12.670
 4199SOL    HW123936   0.122   4.069  12.657
 4199SOL    HW223937   0.192   3.960  12.756
 4200SOL     OW23938   0.382   4.424  11.652
 4200SOL    HW123939   0.427   4.334  11.649
 4200SOL    HW223940   0.288   4.413  11.685
 4201SOL     OW23941   1.547   3.946  12.901
 4201SOL    HW123942   1.542   3.983  12.993
 4201SOL    HW223943   1.475   3.877  12.889
 4202SOL     OW23944   0.614   3.846  11.289
 4202SOL    HW123945   0.712   3.824  11.296
 4202SOL    HW223946   0.583   3.829  11.196
 4203SOL     OW23947   0.781   3.988  12.921
 4203SOL    HW123948   0.848   3.927  12.964
 4203SOL    HW223949   0.708   4.007  12.986
 4204SOL     OW23950   0.922   4.227  12.071
 4204SOL    HW123951   0.897   4.218  11.975
 4204SOL    HW223952   0.970   4.145  12.102
 4205SOL     OW23953   0.935   3.960  11.652
 4205SOL    HW123954   0.887   4.001  11.574
 4205SOL    HW223955   1.034   3.958  11.633
 4206SOL     OW23956   0.561   3.946  12.319
 4206SOL    HW123957   0.599   3.862  12.356
 4206SOL    HW223958   0.473   3.965  12.363
 4207SOL     OW23959   0.866   4.178  11.814
 4207SOL    HW123960   0.834   4.250  11.752
 4207SOL    HW223961   0.890   4.097  11.761
 4208SOL     OW23962   1.857   4.557  11.549
 4208SOL    HW123963   1.899   4.493  11.613
 4208SOL    HW223964   1.819   4.506  11.471
 4209SOL     OW23965   0.527   3.980  11.500
 4209SOL    HW123966   0.554   3.921  11.425
 4209SOL    HW223967   0.527   4.075  11.469
 4210SOL     OW23968   0.566   4.261  12.037
 4210SOL    HW123969   0.578   4.327  11.963
 4210SOL    HW223970   0.612   4.295  12.120
 4211SOL     OW23971   0.732   4.358  12.236
 4211SOL    HW123972   0.791   4.332  12.160
 4211SOL    HW223973   0.704   4.454  12.225
 4212SOL     OW23974   0.307   3.787  11.790
 4212SOL    HW123975   0.296   3.881  11.823
 4212SOL    HW223976   0.302   3.724  11.867
 4213SOL     OW23977   1.622   4.091  11.546
 4213SOL    HW123978   1.624   4.015  11.610
 4213SOL    HW223979   1.574   4.168  11.586
 4214SOL     OW23980   1.023   4.490  12.138
 4214SOL    HW123981   1.038   4.511  12.234
 4214SOL    HW223982   0.993   4.395  12.129
 4215SOL     OW23983   1.540   3.998  11.297
 4215SOL    HW123984   1.479   3.923  11.320
 4215SOL    HW223985   1.562   4.050  11.380
 4216SOL     OW23986   1.002   4.520  12.410
 4216SOL    HW123987   1.043   4.488  12.496
 4216SOL    HW223988   0.906   4.493  12.407
 4217SOL     OW23989   1.369   4.674  12.832
 4217SOL    HW123990   1.408   4.763  12.852
 4217SOL    HW223991   1.379   4.654  12.735
 4218SOL     OW23992   0.815   4.296  11.497
 4218SOL    HW123993   0.822   4.207  11.451
 4218SOL    HW223994   0.721   4.330  11.489
 4219SOL     OW23995   0.671   4.188  12.441
 4219SOL    HW123996   0.637   4.099  12.411
 4219SOL    HW223997   0.697   4.242  12.361
 4220SOL     OW23998   0.473   4.224  11.363
 4220SOL    HW123999   0.534   4.304  11.367
 4220SOL    HW224000   0.378   4.255  11.370
 4221SOL     OW24001   1.726   3.859  11.695
 4221SOL    HW124002   1.799   3.842  11.628
 4221SOL    HW224003   1.695   3.772  11.733
 4222SOL     OW24004   1.280   4.651  11.844
 4222SOL    HW124005   1.340   4.570  11.846
 4222SOL    HW224006   1.320   4.720  11.784
 4223SOL     OW24007   0.916   4.634  11.463
 4223SOL    HW124008   0.979   4.672  11.395
 4223SOL    HW224009   0.956   4.551  11.502
 4224SOL     OW24010   1.014   3.960  12.143
 4224SOL    HW124011   1.006   3.924  12.050
 4224SOL    HW224012   1.012   3.884  12.208
 4225SOL     OW24013   0.075   4.069  11.205
 4225SOL    HW124014  -0.017   4.041  11.176
 4225SOL    HW224015   0.106   4.146  11.149
 4226SOL     OW24016   0.072   3.890  11.490
 4226SOL    HW124017   0.055   3.973  11.436
 4226SOL    HW224018   0.162   3.853  11.468
 4227SOL     OW24019   0.594   4.469  11.824
 4227SOL    HW124020   0.644   4.554  11.805
 4227SOL    HW224021   0.506   4.471  11.776
 4228SOL     OW24022   1.777   4.066  12.814
 4228SOL    HW124023   1.760   4.097  12.720
 4228SOL    HW224024   1.693   4.029  12.852
 4229SOL     OW24025   1.730   4.658  12.689
 4229SOL    HW124026   1.768   4.749  12.704
 4229SOL    HW224027   1.722   4.641  12.590
 4230SOL     OW24028   1.824   3.916  12.399
 4230SOL    HW124029   1.820   3.826  12.443
 4230SOL    HW224030   1.827   3.905  12.300
 4231SOL     OW24031   0.428   4.148  11.692
 4231SOL    HW124032   0.458   4.076  11.630
 4231SOL    HW224033   0.389   4.108  11.775
 4232SOL     OW24034   1.352   3.776  11.340
 4232SOL    HW124035   1.387   3.735  11.256
 4232SOL    HW224036   1.262   3.738  11.360
 4233SOL     OW24037   0.039   4.801  11.472
 4233SOL    HW124038   0.138   4.790  11.463
 4233SOL    HW224039  -0.001   4.715  11.504
 4234SOL     OW24040   0.225   3.999  14.030
 4234SOL    HW124041   0.260   3.982  14.122
 4234SOL    HW224042   0.137   3.954  14.018
 4235SOL     OW24043   0.019   4.092  13.681
 4235SOL    HW124044  -0.063   4.135  13.720
 4235SOL    HW224045  -0.009   4.019  13.618
 4236SOL     OW24046   0.768   4.868  14.057
 4236SOL    HW124047   0.690   4.885  14.117
 4236SOL    HW224048   0.802   4.955  14.021
 4237SOL     OW24049   0.685   4.736  13.699
 4237SOL    HW124050   0.754   4.720  13.769
 4237SOL    HW224051   0.612   4.793  13.737
 4238SOL     OW24052   0.122   4.367  13.597
 4238SOL    HW124053   0.077   4.279  13.614
 4238SOL    HW224054   0.121   4.421  13.681
 4239SOL     OW24055   1.281   4.069  13.978
 4239SOL    HW124056   1.195   4.019  13.965
 4239SOL    HW224057   1.343   4.015  14.034
 4240SOL     OW24058   1.394   4.193  14.708
 4240SOL    HW124059   1.374   4.236  14.796
 4240SOL    HW224060   1.472   4.131  14.717
 4241SOL     OW24061   0.991   4.134  14.276
 4241SOL    HW124062   0.914   4.168  14.330
 4241SOL    HW224063   0.957   4.083  14.197
 4242SOL     OW24064   0.865   4.072  13.229
 4242SOL    HW124065   0.924   4.135  13.180
 4242SOL    HW224066   0.884   3.978  13.200
 4243SOL     OW24067   1.719   4.309  14.865
 4243SOL    HW124068   1.693   4.398  14.829
 4243SOL    HW224069   1.717   4.241  14.792
 4244SOL     OW24070   0.202   4.009  14.532
 4244SOL    HW124071   0.122   4.069  14.519
 4244SOL    HW224072   0.192   3.960  14.618
 4245SOL     OW24073   0.614   3.846  13.151
 4245SOL    HW124074   0.712   3.824  13.158
 4245SOL    HW224075   0.583   3.829  13.058
 4246SOL     OW24076   0.781   3.988  14.783
 4246SOL    HW124077   0.848   3.927  14.826
 4246SOL    HW224078   0.708   4.007  14.848
 4247SOL     OW24079   1.076   4.407  14.498
 4247SOL    HW124080   0.996   4.346  14.501
 4247SOL    HW224081   1.157   4.354  14.474
 4248SOL     OW24082   0.561   3.946  14.181
 4248SOL    HW124083   0.599   3.862  14.218
 4248SOL    HW224084   0.473   3.965  14.225
 4249SOL     OW24085   0.410   4.537  14.285
 4249SOL    HW124086   0.496   4.549  14.335
 4249SOL    HW224087   0.368   4.450  14.312
 4250SOL     OW24088   0.566   4.261  13.899
 4250SOL    HW124089   0.578   4.327  13.825
 4250SOL    HW224090   0.612   4.295  13.982
 4251SOL     OW24091   1.013   3.829  14.804
 4251SOL    HW124092   1.019   3.914  14.752
 4251SOL    HW224093   1.045   3.753  14.747
 4252SOL     OW24094   0.504   3.774  14.774
 4252SOL    HW124095   0.462   3.717  14.704
 4252SOL    HW224096   0.438   3.843  14.806
 4253SOL     OW24097   0.573   4.594  14.063
 4253SOL    HW124098   0.617   4.683  14.054
 4253SOL    HW224099   0.510   4.594  14.140
 4254SOL     OW24100   0.307   3.937  14.265
 4254SOL    HW124101   0.284   3.974  14.355
 4254SOL    HW224102   0.277   3.842  14.259
 4255SOL     OW24103   0.732   4.358  14.098
 4255SOL    HW124104   0.791   4.332  14.022
 4255SOL    HW224105   0.704   4.454  14.087
 4256SOL     OW24106   0.319   4.534  13.983
 4256SOL    HW124107   0.412   4.570  13.988
 4256SOL    HW224108   0.313   4.449  14.035
 4257SOL     OW24109   0.339   4.233  14.040
 4257SOL    HW124110   0.287   4.150  14.023
 4257SOL    HW224111   0.416   4.238  13.976
 4258SOL     OW24112   1.138   4.104  14.712
 4258SOL    HW124113   1.093   4.167  14.776
 4258SOL    HW224114   1.231   4.135  14.695
 4259SOL     OW24115   0.815   4.296  13.359
 4259SOL    HW124116   0.822   4.207  13.313
 4259SOL    HW224117   0.721   4.330  13.351
 4260SOL     OW24118   0.671   4.188  14.303
 4260SOL    HW124119   0.637   4.099  14.273
 4260SOL    HW224120   0.697   4.242  14.223
 4261SOL     OW24121   1.841   3.899  13.997
 4261SOL    HW124122   1.880   3.814  13.961
 4261SOL    HW224123   1.743   3.901  13.978
 4262SOL     OW24124   0.105   4.737  14.760
 4262SOL    HW124125   0.028   4.704  14.814
 4262SOL    HW224126   0.190   4.707  14.802
 4263SOL     OW24127   0.672   3.927  14.523
 4263SOL    HW124128   0.762   3.911  14.483
 4263SOL    HW224129   0.680   3.932  14.622
 4264SOL     OW24130   0.613   4.566  14.465
 4264SOL    HW124131   0.669   4.647  14.448
 4264SOL    HW224132   0.672   4.486  14.468
 4265SOL     OW24133   0.079   4.964  13.687
 4265SOL    HW124134   0.078   4.917  13.775
 4265SOL    HW224135   0.161   4.936  13.636
 4266SOL     OW24136   1.824   3.916  14.261
 4266SOL    HW124137   1.820   3.826  14.305
 4266SOL    HW224138   1.827   3.905  14.162
 4267SOL     OW24139   0.317   4.271  14.314
 4267SOL    HW124140   0.355   4.212  14.386
 4267SOL    HW224141   0.357   4.245  14.226
 4268SOL     OW24142   1.594   3.838  16.377
 4268SOL    HW124143   1.576   3.905  16.305
 4268SOL    HW224144   1.591   3.884  16.466
 4269SOL     OW24145   0.197   4.700  16.161
 4269SOL    HW124146   0.286   4.655  16.147
 4269SOL    HW224147   0.124   4.635  16.142
 4270SOL     OW24148   0.598   4.453  15.166
 4270SOL    HW124149   0.622   4.522  15.098
 4270SOL    HW224150   0.520   4.486  15.220
 4271SOL     OW24151   1.041   4.425  15.325
 4271SOL    HW124152   1.067   4.421  15.421
 4271SOL    HW224153   0.956   4.374  15.311
 4272SOL     OW24154   1.400   3.831  15.322
 4272SOL    HW124155   1.376   3.794  15.232
 4272SOL    HW224156   1.499   3.847  15.326
 4273SOL     OW24157   0.382   4.424  15.376
 4273SOL    HW124158   0.427   4.334  15.373
 4273SOL    HW224159   0.288   4.413  15.409
 4274SOL     OW24160   0.614   3.846  15.013
 4274SOL    HW124161   0.712   3.824  15.020
 4274SOL    HW224162   0.583   3.829  14.920
 4275SOL     OW24163   0.922   4.227  15.795
 4275SOL    HW124164   0.897   4.218  15.699
 4275SOL    HW224165   0.970   4.145  15.826
 4276SOL     OW24166   0.539   3.788  15.408
 4276SOL    HW124167   0.458   3.789  15.466
 4276SOL    HW224168   0.542   3.871  15.353
 4277SOL     OW24169   0.297   3.759  15.067
 4277SOL    HW124170   0.346   3.843  15.046
 4277SOL    HW224171   0.359   3.694  15.112
 4278SOL     OW24172   0.078   4.280  16.283
 4278SOL    HW124173   0.170   4.279  16.242
 4278SOL    HW224174   0.072   4.354  16.350
 4279SOL     OW24175   0.561   3.946  16.044
 4279SOL    HW124176   0.599   3.862  16.081
 4279SOL    HW224177   0.473   3.965  16.088
 4280SOL     OW24178   1.390   4.299  14.974
 4280SOL    HW124179   1.336   4.278  15.055
 4280SOL    HW224180   1.481   4.258  14.983
 4281SOL     OW24181   1.638   4.823  15.976
 4281SOL    HW124182   1.643   4.904  16.035
 4281SOL    HW224183   1.552   4.825  15.925
 4282SOL     OW24184   1.274   4.110  16.159
 4282SOL    HW124185   1.295   4.184  16.223
 4282SOL    HW224186   1.185   4.127  16.116
 4283SOL     OW24187   0.504   3.774  16.637
 4283SOL    HW124188   0.462   3.717  16.567
 4283SOL    HW224189   0.438   3.843  16.669
 4284SOL     OW24190   0.307   3.937  16.128
 4284SOL    HW124191   0.284   3.974  16.218
 4284SOL    HW224192   0.277   3.842  16.122
 4285SOL     OW24193   0.339   4.233  15.903
 4285SOL    HW124194   0.287   4.150  15.886
 4285SOL    HW224195   0.416   4.238  15.839
 4286SOL     OW24196   1.160   3.931  16.374
 4286SOL    HW124197   1.160   3.995  16.451
 4286SOL    HW224198   1.188   3.979  16.291
 4287SOL     OW24199   1.302   4.579  15.205
 4287SOL    HW124200   1.216   4.548  15.247
 4287SOL    HW224201   1.298   4.565  15.106
 4288SOL     OW24202   1.726   3.859  15.419
 4288SOL    HW124203   1.799   3.842  15.352
 4288SOL    HW224204   1.695   3.772  15.457
 4289SOL     OW24205   1.841   3.899  15.860
 4289SOL    HW124206   1.880   3.814  15.824
 4289SOL    HW224207   1.743   3.901  15.841
 4290SOL     OW24208   0.916   4.634  15.187
 4290SOL    HW124209   0.979   4.672  15.119
 4290SOL    HW224210   0.956   4.551  15.226
 4291SOL     OW24211   1.674   4.607  16.151
 4291SOL    HW124212   1.647   4.518  16.114
 4291SOL    HW224213   1.675   4.675  16.078
 4292SOL     OW24214   1.824   3.916  16.124
 4292SOL    HW124215   1.820   3.826  16.168
 4292SOL    HW224216   1.827   3.905  16.025
 4293SOL     OW24217   1.424   3.938  16.009
 4293SOL    HW124218   1.476   3.873  16.064
 4293SOL    HW224219   1.375   4.001  16.070
 4294SOL     OW24220   1.593   3.945  15.778
 4294SOL    HW124221   1.509   3.944  15.832
 4294SOL    HW224222   1.595   4.028  15.722
 4295SOL     OW24223   0.039   4.801  15.196
 4295SOL    HW124224   0.138   4.790  15.187
 4295SOL    HW224225  -0.001   4.715  15.228
 4296SOL     OW24226   1.135   4.427  17.476
 4296SOL    HW124227   1.192   4.505  17.451
 4296SOL    HW224228   1.075   4.453  17.552
 4297SOL     OW24229   1.603   4.171  17.496
 4297SOL    HW124230   1.529   4.217  17.446
 4297SOL    HW224231   1.654   4.239  17.549
 4298SOL     OW24232   1.689   4.646  17.371
 4298SOL    HW124233   1.784   4.617  17.379
 4298SOL    HW224234   1.681   4.711  17.296
 4299SOL     OW24235   1.281   4.069  17.703
 4299SOL    HW124236   1.195   4.019  17.690
 4299SOL    HW224237   1.343   4.015  17.759
 4300SOL     OW24238   0.865   4.072  16.954
 4300SOL    HW124239   0.924   4.135  16.905
 4300SOL    HW224240   0.884   3.978  16.925
 4301SOL     OW24241   1.458   4.459  17.487
 4301SOL    HW124242   1.453   4.394  17.562
 4301SOL    HW224243   1.538   4.518  17.500
 4302SOL     OW24244   0.382   4.424  17.239
 4302SOL    HW124245   0.427   4.334  17.236
 4302SOL    HW224246   0.288   4.413  17.272
 4303SOL     OW24247   0.922   4.227  17.658
 4303SOL    HW124248   0.897   4.218  17.562
 4303SOL    HW224249   0.970   4.145  17.689
 4304SOL     OW24250   1.582   4.363  17.231
 4304SOL    HW124251   1.551   4.424  17.304
 4304SOL    HW224252   1.632   4.415  17.162
 4305SOL     OW24253   1.209   4.249  17.034
 4305SOL    HW124254   1.222   4.165  17.088
 4305SOL    HW224255   1.180   4.323  17.094
 4306SOL     OW24256   1.622   4.091  17.133
 4306SOL    HW124257   1.624   4.015  17.197
 4306SOL    HW224258   1.574   4.168  17.173
 4307SOL     OW24259   1.160   3.931  18.236
 4307SOL    HW124260   1.160   3.995  18.313
 4307SOL    HW224261   1.188   3.979  18.153
 4308SOL     OW24262   0.040   4.268  17.873
 4308SOL    HW124263   0.125   4.235  17.832
 4308SOL    HW224264   0.053   4.283  17.971
 4309SOL     OW24265   1.657   4.328  17.965
 4309SOL    HW124266   1.619   4.259  18.027
 4309SOL    HW224267   1.739   4.292  17.921
 4310SOL     OW24268   1.726   3.859  17.282
 4310SOL    HW124269   1.799   3.842  17.215
 4310SOL    HW224270   1.695   3.772  17.320
 4311SOL     OW24271   1.841   3.899  17.722
 4311SOL    HW124272   1.880   3.814  17.686
 4311SOL    HW224273   1.743   3.901  17.703
 4312SOL     OW24274   0.263   4.050  17.479
 4312SOL    HW124275   0.184   4.101  17.445
 4312SOL    HW224276   0.254   4.035  17.577
 4313SOL     OW24277   1.709   4.109  18.140
 4313SOL    HW124278   1.782   4.178  18.144
 4313SOL    HW224279   1.737   4.034  18.081
 4314SOL     OW24280   0.072   3.890  17.077
 4314SOL    HW124281   0.055   3.973  17.023
 4314SOL    HW224282   0.162   3.853  17.055
 4315SOL     OW24283   1.225   4.049  17.208
 4315SOL    HW124284   1.290   3.975  17.197
 4315SOL    HW224285   1.245   4.099  17.292
 4316SOL     OW24286   1.824   3.916  17.986
 4316SOL    HW124287   1.820   3.826  18.030
 4316SOL    HW224288   1.827   3.905  17.887
 4317SOL     OW24289   1.424   3.938  17.871
 4317SOL    HW124290   1.476   3.873  17.926
 4317SOL    HW224291   1.375   4.001  17.932
 4318SOL     OW24292   1.300   4.177  17.450
 4318SOL    HW124293   1.241   4.257  17.454
 4318SOL    HW224294   1.315   4.142  17.543
 4319SOL     OW24295   1.593   3.945  17.641
 4319SOL    HW124296   1.509   3.944  17.695
 4319SOL    HW224297   1.595   4.028  17.585
 4320SOL     OW24298   2.092   0.628   0.113
 4320SOL    HW124299   1.999   0.626   0.150
 4320SOL    HW224300   2.093   0.589   0.021
 4321SOL     OW24301   1.881   0.368   0.647
 4321SOL    HW124302   1.799   0.411   0.686
 4321SOL    HW224303   1.853   0.295   0.584
 4322SOL     OW24304   2.997   0.703   0.717
 4322SOL    HW124305   3.054   0.781   0.692
 4322SOL    HW224306   2.937   0.729   0.793
 4323SOL     OW24307   2.712   0.798   1.823
 4323SOL    HW124308   2.708   0.874   1.888
 4323SOL    HW224309   2.734   0.834   1.732
 4324SOL     OW24310   2.548   1.161   1.803
 4324SOL    HW124311   2.608   1.240   1.817
 4324SOL    HW224312   2.462   1.192   1.762
 4325SOL     OW24313   2.197   1.435   1.061
 4325SOL    HW124314   2.119   1.404   1.008
 4325SOL    HW224315   2.255   1.493   1.004
 4326SOL     OW24316   2.989   1.341   1.690
 4326SOL    HW124317   3.036   1.341   1.778
 4326SOL    HW224318   2.941   1.254   1.679
 4327SOL     OW24319   2.092   1.434   0.538
 4327SOL    HW124320   2.066   1.530   0.538
 4327SOL    HW224321   2.021   1.380   0.583
 4328SOL     OW24322   2.468   0.964   0.123
 4328SOL    HW124323   2.475   1.048   0.069
 4328SOL    HW224324   2.514   0.977   0.211
 4329SOL     OW24325   3.456   0.114   1.480
 4329SOL    HW124326   3.438   0.181   1.408
 4329SOL    HW224327   3.453   0.160   1.569
 4330SOL     OW24328   3.704   1.767   0.359
 4330SOL    HW124329   3.758   1.738   0.439
 4330SOL    HW224330   3.734   1.857   0.330
 4331SOL     OW24331   3.551   0.922   0.612
 4331SOL    HW124332   3.646   0.893   0.620
 4331SOL    HW224333   3.543   0.987   0.537
 4332SOL     OW24334   1.975   0.737   1.597
 4332SOL    HW124335   2.063   0.724   1.642
 4332SOL    HW224336   1.962   0.834   1.575
 4333SOL     OW24337   3.155   1.228   1.423
 4333SOL    HW124338   3.192   1.155   1.365
 4333SOL    HW224339   3.207   1.233   1.508
 4334SOL     OW24340   2.059   0.976   1.264
 4334SOL    HW124341   2.148   0.931   1.250
 4334SOL    HW224342   1.986   0.911   1.245
 4335SOL     OW24343   2.179   0.251   1.801
 4335SOL    HW124344   2.250   0.322   1.807
 4335SOL    HW224345   2.091   0.290   1.829
 4336SOL     OW24346   3.328   1.417   0.953
 4336SOL    HW124347   3.269   1.423   1.033
 4336SOL    HW224348   3.313   1.329   0.907
 4337SOL     OW24349   3.256   0.469   1.674
 4337SOL    HW124350   3.236   0.512   1.762
 4337SOL    HW224351   3.334   0.407   1.683
 4338SOL     OW24352   2.727   0.348   0.195
 4338SOL    HW124353   2.786   0.411   0.146
 4338SOL    HW224354   2.746   0.254   0.166
 4339SOL     OW24355   3.581   0.585   1.831
 4339SOL    HW124356   3.555   0.674   1.795
 4339SOL    HW224357   3.579   0.517   1.758
 4340SOL     OW24358   3.089   1.550   1.506
 4340SOL    HW124359   3.095   1.473   1.570
 4340SOL    HW224360   3.037   1.524   1.426
 4341SOL     OW24361   3.320   0.735   0.728
 4341SOL    HW124362   3.315   0.670   0.803
 4341SOL    HW224363   3.400   0.794   0.741
 4342SOL     OW24364   2.323   1.266   1.727
 4342SOL    HW124365   2.273   1.267   1.641
 4342SOL    HW224366   2.260   1.248   1.803
 4343SOL     OW24367   2.973   1.776   0.237
 4343SOL    HW124368   2.913   1.714   0.287
 4343SOL    HW224369   3.004   1.732   0.152
 4344SOL     OW24370   2.064   0.285   1.498
 4344SOL    HW124371   1.984   0.345   1.485
 4344SOL    HW224372   2.054   0.236   1.584
 4345SOL     OW24373   3.262   0.107   0.426
 4345SOL    HW124374   3.238   0.070   0.336
 4345SOL    HW224375   3.361   0.123   0.430
 4346SOL     OW24376   3.409   0.222   1.729
 4346SOL    HW124377   3.404   0.259   1.821
 4346SOL    HW224378   3.337   0.153   1.717
 4347SOL     OW24379   2.476   0.122   0.117
 4347SOL    HW124380   2.574   0.100   0.124
 4347SOL    HW224381   2.445   0.105   0.024
 4348SOL     OW24382   3.213   0.590   1.433
 4348SOL    HW124383   3.241   0.547   1.518
 4348SOL    HW224384   3.238   0.686   1.434
 4349SOL     OW24385   2.665   1.402   0.924
 4349SOL    HW124386   2.755   1.416   0.882
 4349SOL    HW224387   2.594   1.404   0.853
 4350SOL     OW24388   2.784   0.503   0.899
 4350SOL    HW124389   2.759   0.494   0.803
 4350SOL    HW224390   2.832   0.421   0.930
 4351SOL     OW24391   2.159   0.035   0.171
 4351SOL    HW124392   2.208   0.119   0.150
 4351SOL    HW224393   2.221  -0.030   0.216
 4352SOL     OW24394   2.321   1.152   0.741
 4352SOL    HW124395   2.250   1.125   0.806
 4352SOL    HW224396   2.295   1.124   0.648
 4353SOL     OW24397   1.940   0.556   1.386
 4353SOL    HW124398   2.032   0.555   1.345
 4353SOL    HW224399   1.934   0.630   1.453
 4354SOL     OW24400   3.252   0.575   0.078
 4354SOL    HW124401   3.198   0.554   0.159
 4354SOL    HW224402   3.343   0.534   0.087
 4355SOL     OW24403   2.389   0.256   0.328
 4355SOL    HW124404   2.416   0.197   0.253
 4355SOL    HW224405   2.389   0.351   0.297
 4356SOL     OW24406   3.616   1.223   1.588
 4356SOL    HW124407   3.707   1.184   1.575
 4356SOL    HW224408   3.624   1.319   1.612
 4357SOL     OW24409   2.926   1.347   1.340
 4357SOL    HW124410   2.846   1.324   1.395
 4357SOL    HW224411   3.009   1.321   1.389
 4358SOL     OW24412   2.973   1.195   1.100
 4358SOL    HW124413   2.933   1.239   1.181
 4358SOL    HW224414   2.932   1.232   1.017
 4359SOL     OW24415   2.842   1.116   1.719
 4359SOL    HW124416   2.743   1.122   1.729
 4359SOL    HW224417   2.865   1.036   1.663
 4360SOL     OW24418   2.567   1.050   0.368
 4360SOL    HW124419   2.553   1.057   0.467
 4360SOL    HW224420   2.651   0.999   0.350
 4361SOL     OW24421   2.428   0.537   0.865
 4361SOL    HW124422   2.440   0.603   0.791
 4361SOL    HW224423   2.474   0.571   0.948
 4362SOL     OW24424   3.134   1.445   1.142
 4362SOL    HW124425   3.181   1.458   1.229
 4362SOL    HW224426   3.068   1.371   1.151
 4363SOL     OW24427   2.216   1.510   1.329
 4363SOL    HW124428   2.195   1.466   1.242
 4363SOL    HW224429   2.313   1.536   1.332
 4364SOL     OW24430   3.449   0.779   1.670
 4364SOL    HW124431   3.357   0.817   1.665
 4364SOL    HW224432   3.509   0.826   1.605
 4365SOL     OW24433   2.875   0.105   1.770
 4365SOL    HW124434   2.881   0.190   1.718
 4365SOL    HW224435   2.907   0.029   1.713
 4366SOL     OW24436   2.366   0.050   1.740
 4366SOL    HW124437   2.324  -0.007   1.670
 4366SOL    HW224438   2.300   0.119   1.772
 4367SOL     OW24439   3.071   0.525   0.275
 4367SOL    HW124440   3.084   0.441   0.329
 4367SOL    HW224441   3.042   0.599   0.335
 4368SOL     OW24442   2.594   0.634   1.064
 4368SOL    HW124443   2.653   0.608   0.988
 4368SOL    HW224444   2.566   0.730   1.053
 4369SOL     OW24445   3.590   0.935   1.854
 4369SOL    HW124446   3.544   0.928   1.765
 4369SOL    HW224447   3.528   0.979   1.920
 4370SOL     OW24448   2.169   0.063   0.618
 4370SOL    HW124449   2.158   0.157   0.651
 4370SOL    HW224450   2.164   0.000   0.695
 4371SOL     OW24451   3.484   0.367   0.374
 4371SOL    HW124452   3.486   0.291   0.438
 4371SOL    HW224453   3.436   0.444   0.414
 4372SOL     OW24454   2.842   1.573   1.700
 4372SOL    HW124455   2.822   1.617   1.612
 4372SOL    HW224456   2.881   1.482   1.684
 4373SOL     OW24457   2.212   0.898   1.804
 4373SOL    HW124458   2.288   0.942   1.852
 4373SOL    HW224459   2.247   0.851   1.722
 4374SOL     OW24460   3.165   0.838   0.042
 4374SOL    HW124461   3.199   0.745   0.057
 4374SOL    HW224462   3.183   0.865  -0.053
 4375SOL     OW24463   2.930   1.333   0.849
 4375SOL    HW124464   2.937   1.249   0.794
 4375SOL    HW224465   2.992   1.402   0.813
 4376SOL     OW24466   2.181   0.810   0.949
 4376SOL    HW124467   2.274   0.846   0.954
 4376SOL    HW224468   2.175   0.725   1.001
 4377SOL     OW24469   2.201   0.509   1.006
 4377SOL    HW124470   2.149   0.426   0.989
 4377SOL    HW224471   2.278   0.514   0.942
 4378SOL     OW24472   2.366   1.568   0.910
 4378SOL    HW124473   2.432   1.642   0.919
 4378SOL    HW224474   2.410   1.489   0.868
 4379SOL     OW24475   2.051   0.520   1.722
 4379SOL    HW124476   2.110   0.480   1.652
 4379SOL    HW224477   1.993   0.591   1.681
 4380SOL     OW24478   3.231   0.950   1.660
 4380SOL    HW124479   3.270   1.039   1.680
 4380SOL    HW224480   3.241   0.930   1.563
 4381SOL     OW24481   2.114   1.564   1.744
 4381SOL    HW124482   2.084   1.621   1.820
 4381SOL    HW224483   2.107   1.467   1.770
 4382SOL     OW24484   3.209   1.059   1.234
 4382SOL    HW124485   3.233   0.996   1.160
 4382SOL    HW224486   3.119   1.099   1.216
 4383SOL     OW24487   3.164   0.855   0.309
 4383SOL    HW124488   3.078   0.824   0.351
 4383SOL    HW224489   3.160   0.841   0.210
 4384SOL     OW24490   2.550   1.662   1.716
 4384SOL    HW124491   2.494   1.743   1.725
 4384SOL    HW224492   2.602   1.666   1.630
 4385SOL     OW24493   2.765   0.086   0.133
 4385SOL    HW124494   2.816   0.087   0.047
 4385SOL    HW224495   2.821   0.044   0.204
 4386SOL     OW24496   3.142   0.927   0.672
 4386SOL    HW124497   3.202   0.846   0.674
 4386SOL    HW224498   3.182   0.996   0.612
 4387SOL     OW24499   2.692   1.273   1.422
 4387SOL    HW124500   2.687   1.306   1.517
 4387SOL    HW224501   2.606   1.292   1.376
 4388SOL     OW24502   2.125   0.326   0.720
 4388SOL    HW124503   2.046   0.377   0.686
 4388SOL    HW224504   2.116   0.311   0.818
 4389SOL     OW24505   3.056   1.612   0.031
 4389SOL    HW124506   3.062   1.519   0.068
 4389SOL    HW224507   2.997   1.612  -0.049
 4390SOL     OW24508   3.476   1.292   1.289
 4390SOL    HW124509   3.536   1.295   1.369
 4390SOL    HW224510   3.401   1.356   1.302
 4391SOL     OW24511   2.452   1.487   0.491
 4391SOL    HW124512   2.494   1.429   0.421
 4391SOL    HW224513   2.408   1.566   0.447
 4392SOL     OW24514   1.967   1.013   1.726
 4392SOL    HW124515   1.890   0.980   1.780
 4392SOL    HW224516   2.052   0.983   1.768
 4393SOL     OW24517   3.302   0.856   1.398
 4393SOL    HW124518   3.245   0.908   1.335
 4393SOL    HW224519   3.398   0.868   1.374
 4394SOL     OW24520   3.355   1.767   0.959
 4394SOL    HW124521   3.388   1.831   0.890
 4394SOL    HW224522   3.421   1.761   1.034
 4395SOL     OW24523   3.312   1.220   1.633
 4395SOL    HW124524   3.303   1.210   1.732
 4395SOL    HW224525   3.408   1.213   1.607
 4396SOL     OW24526   3.087   0.325   0.449
 4396SOL    HW124527   3.152   0.251   0.438
 4396SOL    HW224528   3.107   0.375   0.533
 4397SOL     OW24529   2.456   0.745   0.652
 4397SOL    HW124530   2.506   0.830   0.633
 4397SOL    HW224531   2.368   0.747   0.604
 4398SOL     OW24532   3.639   0.342   1.642
 4398SOL    HW124533   3.622   0.373   1.548
 4398SOL    HW224534   3.555   0.305   1.680
 4399SOL     OW24535   3.592   0.934   1.517
 4399SOL    HW124536   3.630   1.025   1.532
 4399SOL    HW224537   3.584   0.917   1.418
 4400SOL     OW24538   2.523   1.790   0.953
 4400SOL    HW124539   2.477   1.878   0.940
 4400SOL    HW224540   2.622   1.802   0.946
 4401SOL     OW24541   2.083   1.314   1.844
 4401SOL    HW124542   2.018   1.241   1.823
 4401SOL    HW224543   2.087   1.328   1.942
 4402SOL     OW24544   2.534   1.391   1.624
 4402SOL    HW124545   2.456   1.341   1.662
 4402SOL    HW224546   2.531   1.486   1.655
 4403SOL     OW24547   3.686   0.192   1.227
 4403SOL    HW124548   3.682   0.102   1.271
 4403SOL    HW224549   3.689   0.181   1.128
 4404SOL     OW24550   2.290   0.424   0.520
 4404SOL    HW124551   2.320   0.352   0.458
 4404SOL    HW224552   2.251   0.384   0.603
 4405SOL     OW24553   2.480   1.567   1.284
 4405SOL    HW124554   2.475   1.649   1.341
 4405SOL    HW224555   2.569   1.564   1.239
 4406SOL     OW24556   3.214   0.052   0.168
 4406SOL    HW124557   3.249   0.011   0.084
 4406SOL    HW224558   3.124   0.014   0.188
 4407SOL     OW24559   2.092   0.628   1.975
 4407SOL    HW124560   1.999   0.626   2.012
 4407SOL    HW224561   2.093   0.589   1.883
 4408SOL     OW24562   2.087   0.275   2.858
 4408SOL    HW124563   2.122   0.258   2.950
 4408SOL    HW224564   1.999   0.230   2.846
 4409SOL     OW24565   1.881   0.368   2.509
 4409SOL    HW124566   1.799   0.411   2.548
 4409SOL    HW224567   1.853   0.295   2.446
 4410SOL     OW24568   2.431   1.275   3.027
 4410SOL    HW124569   2.338   1.268   2.990
 4410SOL    HW224570   2.442   1.364   3.071
 4411SOL     OW24571   3.417   1.511   2.565
 4411SOL    HW124572   3.360   1.495   2.646
 4411SOL    HW224573   3.358   1.521   2.485
 4412SOL     OW24574   2.997   0.703   2.579
 4412SOL    HW124575   3.054   0.781   2.554
 4412SOL    HW224576   2.937   0.729   2.655
 4413SOL     OW24577   3.617   0.607   2.093
 4413SOL    HW124578   3.605   0.594   1.994
 4413SOL    HW224579   3.587   0.526   2.142
 4414SOL     OW24580   2.630   1.144   2.885
 4414SOL    HW124581   2.552   1.161   2.945
 4414SOL    HW224582   2.664   1.231   2.849
 4415SOL     OW24583   2.712   0.798   3.685
 4415SOL    HW124584   2.708   0.874   3.750
 4415SOL    HW224585   2.734   0.834   3.594
 4416SOL     OW24586   2.547   1.012   2.527
 4416SOL    HW124587   2.616   0.996   2.597
 4416SOL    HW224588   2.474   1.069   2.565
 4417SOL     OW24589   2.548   1.161   3.665
 4417SOL    HW124590   2.608   1.240   3.679
 4417SOL    HW224591   2.462   1.192   3.624
 4418SOL     OW24592   2.197   1.435   2.923
 4418SOL    HW124593   2.119   1.404   2.870
 4418SOL    HW224594   2.255   1.493   2.866
 4419SOL     OW24595   3.322   1.505   3.201
 4419SOL    HW124596   3.346   1.599   3.227
 4419SOL    HW224597   3.306   1.451   3.283
 4420SOL     OW24598   2.300   0.392   3.361
 4420SOL    HW124599   2.382   0.336   3.370
 4420SOL    HW224600   2.219   0.334   3.365
 4421SOL     OW24601   3.465   0.447   2.599
 4421SOL    HW124602   3.391   0.493   2.549
 4421SOL    HW224603   3.516   0.515   2.652
 4422SOL     OW24604   2.093   1.713   2.345
 4422SOL    HW124605   2.127   1.790   2.399
 4422SOL    HW224606   2.137   1.713   2.255
 4423SOL     OW24607   2.989   1.341   3.552
 4423SOL    HW124608   3.036   1.341   3.640
 4423SOL    HW224609   2.941   1.254   3.541
 4424SOL     OW24610   2.092   1.434   2.400
 4424SOL    HW124611   2.066   1.530   2.400
 4424SOL    HW224612   2.021   1.380   2.445
 4425SOL     OW24613   2.102   1.091   2.748
 4425SOL    HW124614   2.116   1.007   2.800
 4425SOL    HW224615   2.047   1.155   2.803
 4426SOL     OW24616   2.482   1.786   3.301
 4426SOL    HW124617   2.390   1.769   3.336
 4426SOL    HW224618   2.510   1.878   3.327
 4427SOL     OW24619   2.468   0.964   1.985
 4427SOL    HW124620   2.475   1.048   1.931
 4427SOL    HW224621   2.514   0.977   2.073
 4428SOL     OW24622   3.456   0.114   3.342
 4428SOL    HW124623   3.438   0.181   3.270
 4428SOL    HW224624   3.453   0.160   3.431
 4429SOL     OW24625   1.984   0.643   2.425
 4429SOL    HW124626   1.939   0.555   2.442
 4429SOL    HW224627   1.983   0.697   2.509
 4430SOL     OW24628   3.704   1.767   2.221
 4430SOL    HW124629   3.758   1.738   2.301
 4430SOL    HW224630   3.734   1.857   2.192
 4431SOL     OW24631   3.551   0.922   2.474
 4431SOL    HW124632   3.646   0.893   2.482
 4431SOL    HW224633   3.543   0.987   2.399
 4432SOL     OW24634   3.503   1.108   2.294
 4432SOL    HW124635   3.589   1.110   2.242
 4432SOL    HW224636   3.517   1.155   2.382
 4433SOL     OW24637   1.975   0.737   3.459
 4433SOL    HW124638   2.063   0.724   3.504
 4433SOL    HW224639   1.962   0.834   3.437
 4434SOL     OW24640   2.475   1.365   2.588
 4434SOL    HW124641   2.426   1.278   2.597
 4434SOL    HW224642   2.452   1.408   2.501
 4435SOL     OW24643   3.155   1.228   3.285
 4435SOL    HW124644   3.192   1.155   3.227
 4435SOL    HW224645   3.207   1.233   3.370
 4436SOL     OW24646   2.671   0.004   2.364
 4436SOL    HW124647   2.711   0.095   2.355
 4436SOL    HW224648   2.571   0.012   2.370
 4437SOL     OW24649   2.059   0.976   3.126
 4437SOL    HW124650   2.148   0.931   3.112
 4437SOL    HW224651   1.986   0.911   3.107
 4438SOL     OW24652   3.387   0.999   2.052
 4438SOL    HW124653   3.324   0.923   2.065
 4438SOL    HW224654   3.435   1.017   2.138
 4439SOL     OW24655   3.049   1.792   3.478
 4439SOL    HW124656   3.073   1.852   3.402
 4439SOL    HW224657   3.056   1.697   3.448
 4440SOL     OW24658   2.179   0.251   3.663
 4440SOL    HW124659   2.250   0.322   3.669
 4440SOL    HW224660   2.091   0.290   3.691
 4441SOL     OW24661   3.328   1.417   2.815
 4441SOL    HW124662   3.269   1.423   2.895
 4441SOL    HW224663   3.313   1.329   2.769
 4442SOL     OW24664   3.529   1.714   2.434
 4442SOL    HW124665   3.488   1.691   2.346
 4442SOL    HW224666   3.511   1.640   2.499
 4443SOL     OW24667   2.460   0.729   2.132
 4443SOL    HW124668   2.484   0.798   2.064
 4443SOL    HW224669   2.382   0.762   2.186
 4444SOL     OW24670   3.143   0.345   2.806
 4444SOL    HW124671   3.057   0.295   2.793
 4444SOL    HW224672   3.205   0.291   2.862
 4445SOL     OW24673   3.438   1.662   2.169
 4445SOL    HW124674   3.527   1.708   2.172
 4445SOL    HW224675   3.417   1.638   2.074
 4446SOL     OW24676   2.669   0.605   3.327
 4446SOL    HW124677   2.622   0.602   3.416
 4446SOL    HW224678   2.618   0.550   3.261
 4447SOL     OW24679   3.256   0.469   3.536
 4447SOL    HW124680   3.236   0.512   3.624
 4447SOL    HW224681   3.334   0.407   3.545
 4448SOL     OW24682   2.835   0.890   3.434
 4448SOL    HW124683   2.881   0.806   3.405
 4448SOL    HW224684   2.779   0.924   3.359
 4449SOL     OW24685   2.853   0.410   3.104
 4449SOL    HW124686   2.776   0.444   3.158
 4449SOL    HW224687   2.819   0.359   3.025
 4450SOL     OW24688   2.903   0.701   2.291
 4450SOL    HW124689   2.929   0.697   2.387
 4450SOL    HW224690   2.818   0.650   2.277
 4451SOL     OW24691   1.938   0.811   2.651
 4451SOL    HW124692   2.037   0.799   2.660
 4451SOL    HW224693   1.914   0.906   2.672
 4452SOL     OW24694   1.992   1.821   3.433
 4452SOL    HW124695   1.982   1.806   3.532
 4452SOL    HW224696   1.906   1.857   3.397
 4453SOL     OW24697   2.727   0.348   2.057
 4453SOL    HW124698   2.786   0.411   2.008
 4453SOL    HW224699   2.746   0.254   2.028
 4454SOL     OW24700   3.581   0.585   3.693
 4454SOL    HW124701   3.555   0.674   3.657
 4454SOL    HW224702   3.579   0.517   3.620
 4455SOL     OW24703   3.224   1.144   2.407
 4455SOL    HW124704   3.307   1.115   2.359
 4455SOL    HW224705   3.175   1.211   2.351
 4456SOL     OW24706   2.412   0.196   2.747
 4456SOL    HW124707   2.407   0.191   2.847
 4456SOL    HW224708   2.414   0.292   2.718
 4457SOL     OW24709   2.870   1.456   2.339
 4457SOL    HW124710   2.824   1.528   2.287
 4457SOL    HW224711   2.866   1.476   2.437
 4458SOL     OW24712   2.213   1.801   2.715
 4458SOL    HW124713   2.263   1.715   2.721
 4458SOL    HW224714   2.278   1.878   2.712
 4459SOL     OW24715   3.657   1.066   2.735
 4459SOL    HW124716   3.595   1.051   2.659
 4459SOL    HW224717   3.605   1.077   2.820
 4460SOL     OW24718   3.089   1.550   3.368
 4460SOL    HW124719   3.095   1.473   3.432
 4460SOL    HW224720   3.037   1.524   3.288
 4461SOL     OW24721   2.183   0.943   2.104
 4461SOL    HW124722   2.265   0.982   2.062
 4461SOL    HW224723   2.156   0.861   2.055
 4462SOL     OW24724   3.320   0.735   2.590
 4462SOL    HW124725   3.315   0.670   2.665
 4462SOL    HW224726   3.400   0.794   2.603
 4463SOL     OW24727   2.323   1.266   3.589
 4463SOL    HW124728   2.273   1.267   3.503
 4463SOL    HW224729   2.260   1.248   3.665
 4464SOL     OW24730   2.973   1.776   2.099
 4464SOL    HW124731   2.913   1.714   2.149
 4464SOL    HW224732   3.004   1.732   2.014
 4465SOL     OW24733   2.064   0.285   3.360
 4465SOL    HW124734   1.984   0.345   3.347
 4465SOL    HW224735   2.054   0.236   3.446
 4466SOL     OW24736   3.494   1.377   1.943
 4466SOL    HW124737   3.462   1.471   1.933
 4466SOL    HW224738   3.418   1.314   1.931
 4467SOL     OW24739   2.326   1.743   2.185
 4467SOL    HW124740   2.359   1.782   2.271
 4467SOL    HW224741   2.402   1.736   2.120
 4468SOL     OW24742   3.262   0.107   2.288
 4468SOL    HW124743   3.238   0.070   2.198
 4468SOL    HW224744   3.361   0.123   2.292
 4469SOL     OW24745   2.111   1.785   3.103
 4469SOL    HW124746   2.168   1.720   3.153
 4469SOL    HW224747   2.095   1.752   3.010
 4470SOL     OW24748   2.802   1.698   2.766
 4470SOL    HW124749   2.882   1.641   2.787
 4470SOL    HW224750   2.753   1.658   2.689
 4471SOL     OW24751   2.244   0.700   2.342
 4471SOL    HW124752   2.289   0.610   2.339
 4471SOL    HW224753   2.150   0.689   2.375
 4472SOL     OW24754   3.409   0.222   3.591
 4472SOL    HW124755   3.404   0.259   3.683
 4472SOL    HW224756   3.337   0.153   3.579
 4473SOL     OW24757   2.476   0.122   1.979
 4473SOL    HW124758   2.574   0.100   1.986
 4473SOL    HW224759   2.445   0.105   1.886
 4474SOL     OW24760   2.643   0.264   3.611
 4474SOL    HW124761   2.710   0.203   3.654
 4474SOL    HW224762   2.570   0.283   3.676
 4475SOL     OW24763   2.750   1.514   3.057
 4475SOL    HW124764   2.727   1.489   2.963
 4475SOL    HW224765   2.811   1.445   3.096
 4476SOL     OW24766   3.213   0.590   3.295
 4476SOL    HW124767   3.241   0.547   3.380
 4476SOL    HW224768   3.238   0.686   3.296
 4477SOL     OW24769   2.784   0.503   2.761
 4477SOL    HW124770   2.759   0.494   2.665
 4477SOL    HW224771   2.832   0.421   2.792
 4478SOL     OW24772   2.401   0.064   2.374
 4478SOL    HW124773   2.320   0.065   2.432
 4478SOL    HW224774   2.404   0.147   2.319
 4479SOL     OW24775   3.296   1.188   1.903
 4479SOL    HW124776   3.328   1.112   1.960
 4479SOL    HW224777   3.204   1.215   1.933
 4480SOL     OW24778   2.159   0.035   2.033
 4480SOL    HW124779   2.208   0.119   2.012
 4480SOL    HW224780   2.221  -0.030   2.078
 4481SOL     OW24781   2.797   0.236   2.342
 4481SOL    HW124782   2.749   0.277   2.264
 4481SOL    HW224783   2.896   0.234   2.323
 4482SOL     OW24784   2.938   0.683   3.326
 4482SOL    HW124785   2.858   0.622   3.329
 4482SOL    HW224786   3.019   0.630   3.302
 4483SOL     OW24787   3.089   1.570   2.655
 4483SOL    HW124788   3.110   1.644   2.590
 4483SOL    HW224789   3.157   1.570   2.728
 4484SOL     OW24790   2.321   1.152   2.603
 4484SOL    HW124791   2.250   1.125   2.668
 4484SOL    HW224792   2.295   1.124   2.510
 4485SOL     OW24793   3.133   1.797   2.453
 4485SOL    HW124794   3.177   1.861   2.389
 4485SOL    HW224795   3.083   1.849   2.523
 4486SOL     OW24796   2.894   0.549   1.878
 4486SOL    HW124797   2.853   0.631   1.839
 4486SOL    HW224798   2.958   0.575   1.951
 4487SOL     OW24799   1.940   0.556   3.248
 4487SOL    HW124800   2.032   0.555   3.207
 4487SOL    HW224801   1.934   0.630   3.315
 4488SOL     OW24802   2.423   0.222   3.009
 4488SOL    HW124803   2.461   0.138   3.046
 4488SOL    HW224804   2.335   0.241   3.053
 4489SOL     OW24805   2.728   0.454   2.504
 4489SOL    HW124806   2.696   0.526   2.442
 4489SOL    HW224807   2.752   0.373   2.451
 4490SOL     OW24808   2.879   0.039   2.615
 4490SOL    HW124809   2.807   0.044   2.546
 4490SOL    HW224810   2.855  -0.030   2.684
 4491SOL     OW24811   3.291   1.173   2.729
 4491SOL    HW124812   3.236   1.089   2.722
 4491SOL    HW224813   3.317   1.202   2.637
 4492SOL     OW24814   3.328   0.590   2.854
 4492SOL    HW124815   3.298   0.495   2.861
 4492SOL    HW224816   3.401   0.606   2.920
 4493SOL     OW24817   3.719   0.833   2.239
 4493SOL    HW124818   3.761   0.769   2.303
 4493SOL    HW224819   3.681   0.782   2.161
 4494SOL     OW24820   2.350   1.385   2.036
 4494SOL    HW124821   2.263   1.370   2.083
 4494SOL    HW224822   2.333   1.411   1.941
 4495SOL     OW24823   3.526   1.280   2.519
 4495SOL    HW124824   3.625   1.288   2.533
 4495SOL    HW224825   3.481   1.364   2.550
 4496SOL     OW24826   3.252   0.575   1.940
 4496SOL    HW124827   3.198   0.554   2.021
 4496SOL    HW224828   3.343   0.534   1.949
 4497SOL     OW24829   2.389   0.256   2.190
 4497SOL    HW124830   2.416   0.197   2.115
 4497SOL    HW224831   2.389   0.351   2.159
 4498SOL     OW24832   2.926   1.347   3.202
 4498SOL    HW124833   2.846   1.324   3.257
 4498SOL    HW224834   3.009   1.321   3.251
 4499SOL     OW24835   3.454   1.629   3.487
 4499SOL    HW124836   3.481   1.663   3.397
 4499SOL    HW224837   3.533   1.591   3.533
 4500SOL     OW24838   2.973   1.195   2.962
 4500SOL    HW124839   2.933   1.239   3.043
 4500SOL    HW224840   2.932   1.232   2.879
 4501SOL     OW24841   3.500   1.099   2.941
 4501SOL    HW124842   3.505   1.180   3.000
 4501SOL    HW224843   3.414   1.101   2.890
 4502SOL     OW24844   2.777   0.089   3.264
 4502SOL    HW124845   2.802   0.069   3.169
 4502SOL    HW224846   2.849   0.145   3.306
 4503SOL     OW24847   2.842   1.116   3.581
 4503SOL    HW124848   2.743   1.122   3.591
 4503SOL    HW224849   2.865   1.036   3.525
 4504SOL     OW24850   2.567   1.050   2.230
 4504SOL    HW124851   2.553   1.057   2.329
 4504SOL    HW224852   2.651   0.999   2.212
 4505SOL     OW24853   2.272   0.813   3.113
 4505SOL    HW124854   2.358   0.825   3.163
 4505SOL    HW224855   2.230   0.726   3.140
 4506SOL     OW24856   3.136   0.386   3.124
 4506SOL    HW124857   3.157   0.460   3.188
 4506SOL    HW224858   3.047   0.403   3.081
 4507SOL     OW24859   1.926   1.564   3.193
 4507SOL    HW124860   1.880   1.646   3.159
 4507SOL    HW224861   2.024   1.583   3.202
 4508SOL     OW24862   2.229   1.100   2.363
 4508SOL    HW124863   2.222   1.183   2.307
 4508SOL    HW224864   2.233   1.020   2.303
 4509SOL     OW24865   2.428   0.537   2.727
 4509SOL    HW124866   2.440   0.603   2.653
 4509SOL    HW224867   2.474   0.571   2.810
 4510SOL     OW24868   3.114   1.348   2.250
 4510SOL    HW124869   3.164   1.425   2.290
 4510SOL    HW224870   3.019   1.350   2.282
 4511SOL     OW24871   3.134   1.445   3.004
 4511SOL    HW124872   3.181   1.458   3.091
 4511SOL    HW224873   3.068   1.371   3.013
 4512SOL     OW24874   3.444   0.639   2.334
 4512SOL    HW124875   3.413   0.700   2.407
 4512SOL    HW224876   3.494   0.691   2.265
 4513SOL     OW24877   2.216   1.510   3.191
 4513SOL    HW124878   2.195   1.466   3.104
 4513SOL    HW224879   2.313   1.536   3.194
 4514SOL     OW24880   2.264   0.751   3.460
 4514SOL    HW124881   2.332   0.806   3.413
 4514SOL    HW224882   2.304   0.663   3.487
 4515SOL     OW24883   3.449   0.779   3.532
 4515SOL    HW124884   3.357   0.817   3.527
 4515SOL    HW224885   3.509   0.826   3.467
 4516SOL     OW24886   2.875   0.105   3.632
 4516SOL    HW124887   2.881   0.190   3.580
 4516SOL    HW224888   2.907   0.029   3.575
 4517SOL     OW24889   2.366   0.050   3.602
 4517SOL    HW124890   2.324  -0.007   3.532
 4517SOL    HW224891   2.300   0.119   3.634
 4518SOL     OW24892   2.435   0.870   2.891
 4518SOL    HW124893   2.479   0.959   2.882
 4518SOL    HW224894   2.372   0.870   2.968
 4519SOL     OW24895   3.222   0.862   2.907
 4519SOL    HW124896   3.147   0.862   2.841
 4519SOL    HW224897   3.259   0.770   2.916
 4520SOL     OW24898   3.071   0.525   2.137
 4520SOL    HW124899   3.084   0.441   2.191
 4520SOL    HW224900   3.042   0.599   2.197
 4521SOL     OW24901   2.169   0.213   3.093
 4521SOL    HW124902   2.146   0.250   3.183
 4521SOL    HW224903   2.139   0.118   3.087
 4522SOL     OW24904   1.899   1.310   3.144
 4522SOL    HW124905   1.952   1.261   3.212
 4522SOL    HW224906   1.921   1.408   3.149
 4523SOL     OW24907   2.594   0.634   2.926
 4523SOL    HW124908   2.653   0.608   2.850
 4523SOL    HW224909   2.566   0.730   2.915
 4524SOL     OW24910   3.590   0.935   3.716
 4524SOL    HW124911   3.544   0.928   3.627
 4524SOL    HW224912   3.528   0.979   3.782
 4525SOL     OW24913   2.169   0.063   2.480
 4525SOL    HW124914   2.158   0.157   2.513
 4525SOL    HW224915   2.164   0.000   2.557
 4526SOL     OW24916   3.484   0.367   2.236
 4526SOL    HW124917   3.486   0.291   2.300
 4526SOL    HW224918   3.436   0.444   2.276
 4527SOL     OW24919   2.885   0.766   2.828
 4527SOL    HW124920   2.900   0.787   2.924
 4527SOL    HW224921   2.855   0.671   2.819
 4528SOL     OW24922   2.842   1.573   3.562
 4528SOL    HW124923   2.822   1.617   3.474
 4528SOL    HW224924   2.881   1.482   3.546
 4529SOL     OW24925   3.721   1.518   3.467
 4529SOL    HW124926   3.735   1.545   3.372
 4529SOL    HW224927   3.804   1.540   3.520
 4530SOL     OW24928   2.212   0.898   3.666
 4530SOL    HW124929   2.288   0.942   3.714
 4530SOL    HW224930   2.247   0.851   3.584
 4531SOL     OW24931   3.402   0.274   1.987
 4531SOL    HW124932   3.341   0.199   2.010
 4531SOL    HW224933   3.424   0.326   2.070
 4532SOL     OW24934   3.165   0.838   1.904
 4532SOL    HW124935   3.199   0.745   1.919
 4532SOL    HW224936   3.183   0.865   1.809
 4533SOL     OW24937   2.930   1.333   2.711
 4533SOL    HW124938   2.937   1.249   2.656
 4533SOL    HW224939   2.992   1.402   2.675
 4534SOL     OW24940   2.181   0.810   2.811
 4534SOL    HW124941   2.274   0.846   2.816
 4534SOL    HW224942   2.175   0.725   2.863
 4535SOL     OW24943   2.201   0.509   2.868
 4535SOL    HW124944   2.149   0.426   2.851
 4535SOL    HW224945   2.278   0.514   2.804
 4536SOL     OW24946   3.000   0.380   3.540
 4536SOL    HW124947   2.955   0.443   3.604
 4536SOL    HW224948   3.093   0.411   3.523
 4537SOL     OW24949   3.022   0.207   3.339
 4537SOL    HW124950   3.022   0.271   3.416
 4537SOL    HW224951   3.050   0.255   3.256
 4538SOL     OW24952   1.870   1.326   2.062
 4538SOL    HW124953   1.777   1.347   2.031
 4538SOL    HW224954   1.880   1.227   2.075
 4539SOL     OW24955   1.950   1.801   2.789
 4539SOL    HW124956   1.908   1.715   2.762
 4539SOL    HW224957   2.044   1.804   2.755
 4540SOL     OW24958   2.366   1.568   2.772
 4540SOL    HW124959   2.432   1.642   2.781
 4540SOL    HW224960   2.410   1.489   2.730
 4541SOL     OW24961   2.864   0.796   3.100
 4541SOL    HW124962   2.905   0.764   3.186
 4541SOL    HW224963   2.768   0.769   3.097
 4542SOL     OW24964   1.902   0.544   2.976
 4542SOL    HW124965   1.987   0.511   2.935
 4542SOL    HW224966   1.915   0.559   3.074
 4543SOL     OW24967   2.051   0.520   3.584
 4543SOL    HW124968   2.110   0.480   3.514
 4543SOL    HW224969   1.993   0.591   3.543
 4544SOL     OW24970   3.231   0.950   3.522
 4544SOL    HW124971   3.270   1.039   3.542
 4544SOL    HW224972   3.241   0.930   3.425
 4545SOL     OW24973   2.677   0.572   2.187
 4545SOL    HW124974   2.684   0.483   2.141
 4545SOL    HW224975   2.583   0.606   2.179
 4546SOL     OW24976   3.519   0.604   3.068
 4546SOL    HW124977   3.481   0.535   3.130
 4546SOL    HW224978   3.601   0.568   3.024
 4547SOL     OW24979   2.114   1.564   3.606
 4547SOL    HW124980   2.084   1.621   3.682
 4547SOL    HW224981   2.107   1.467   3.632
 4548SOL     OW24982   2.533   0.464   3.131
 4548SOL    HW124983   2.499   0.375   3.101
 4548SOL    HW224984   2.559   0.518   3.051
 4549SOL     OW24985   2.792   1.678   3.327
 4549SOL    HW124986   2.768   1.660   3.232
 4549SOL    HW224987   2.822   1.772   3.337
 4550SOL     OW24988   2.335   0.500   2.053
 4550SOL    HW124989   2.396   0.580   2.057
 4550SOL    HW224990   2.240   0.531   2.060
 4551SOL     OW24991   2.021   1.137   3.328
 4551SOL    HW124992   2.043   1.076   3.404
 4551SOL    HW224993   2.031   1.088   3.242
 4552SOL     OW24994   3.209   1.059   3.096
 4552SOL    HW124995   3.233   0.996   3.022
 4552SOL    HW224996   3.119   1.099   3.078
 4553SOL     OW24997   3.164   0.855   2.171
 4553SOL    HW124998   3.078   0.824   2.213
 4553SOL    HW224999   3.160   0.841   2.072
 4554SOL     OW25000   3.621   1.747   3.016
 4554SOL    HW125001   3.682   1.777   2.943
 4554SOL    HW225002   3.583   1.658   2.994
 4555SOL     OW25003   3.114   1.731   2.990
 4555SOL    HW125004   3.198   1.736   2.936
 4555SOL    HW225005   3.091   1.635   3.008
 4556SOL     OW25006   1.945   1.258   2.884
 4556SOL    HW125007   1.940   1.257   2.984
 4556SOL    HW225008   1.862   1.217   2.846
 4557SOL     OW25009   2.550   1.662   3.578
 4557SOL    HW125010   2.494   1.743   3.587
 4557SOL    HW225011   2.602   1.666   3.492
 4558SOL     OW25012   3.588   0.135   2.385
 4558SOL    HW125013   3.661   0.118   2.318
 4558SOL    HW225014   3.557   0.048   2.423
 4559SOL     OW25015   3.250   1.573   2.339
 4559SOL    HW125016   3.317   1.585   2.265
 4559SOL    HW225017   3.210   1.662   2.362
 4560SOL     OW25018   1.992   1.794   3.713
 4560SOL    HW125019   1.951   1.720   3.766
 4560SOL    HW225020   2.056   1.845   3.771
 4561SOL     OW25021   3.142   0.927   2.534
 4561SOL    HW125022   3.202   0.846   2.536
 4561SOL    HW225023   3.182   0.996   2.474
 4562SOL     OW25024   2.692   1.273   3.284
 4562SOL    HW125025   2.687   1.306   3.379
 4562SOL    HW225026   2.606   1.292   3.238
 4563SOL     OW25027   2.534   1.616   2.016
 4563SOL    HW125028   2.543   1.626   1.917
 4563SOL    HW225029   2.494   1.527   2.037
 4564SOL     OW25030   3.512   1.720   3.256
 4564SOL    HW125031   3.565   1.730   3.172
 4564SOL    HW225032   3.485   1.810   3.290
 4565SOL     OW25033   3.703   0.175   2.825
 4565SOL    HW125034   3.742   0.090   2.789
 4565SOL    HW225035   3.605   0.177   2.806
 4566SOL     OW25036   2.125   0.326   2.582
 4566SOL    HW125037   2.046   0.377   2.548
 4566SOL    HW225038   2.116   0.311   2.680
 4567SOL     OW25039   3.056   1.612   1.893
 4567SOL    HW125040   3.062   1.519   1.930
 4567SOL    HW225041   2.997   1.612   1.813
 4568SOL     OW25042   2.684   1.002   3.234
 4568SOL    HW125043   2.724   1.001   3.142
 4568SOL    HW225044   2.694   1.094   3.274
 4569SOL     OW25045   2.778   0.910   2.153
 4569SOL    HW125046   2.841   0.948   2.085
 4569SOL    HW225047   2.818   0.827   2.192
 4570SOL     OW25048   3.366   1.607   1.906
 4570SOL    HW125049   3.274   1.644   1.913
 4570SOL    HW225050   3.404   1.627   1.816
 4571SOL     OW25051   2.234   1.288   3.352
 4571SOL    HW125052   2.221   1.381   3.318
 4571SOL    HW225053   2.150   1.236   3.339
 4572SOL     OW25054   3.476   1.292   3.151
 4572SOL    HW125055   3.536   1.295   3.231
 4572SOL    HW225056   3.401   1.356   3.164
 4573SOL     OW25057   2.901   1.098   2.558
 4573SOL    HW125058   2.831   1.051   2.612
 4573SOL    HW225059   2.960   1.030   2.515
 4574SOL     OW25060   2.876   0.236   2.833
 4574SOL    HW125061   2.868   0.200   2.740
 4574SOL    HW225062   2.874   0.160   2.898
 4575SOL     OW25063   2.452   1.487   2.353
 4575SOL    HW125064   2.494   1.429   2.283
 4575SOL    HW225065   2.408   1.566   2.309
 4576SOL     OW25066   3.571   0.385   3.243
 4576SOL    HW125067   3.644   0.454   3.247
 4576SOL    HW225068   3.599   0.310   3.184
 4577SOL     OW25069   2.117   1.348   2.152
 4577SOL    HW125070   2.021   1.349   2.125
 4577SOL    HW225071   2.129   1.401   2.236
 4578SOL     OW25072   1.967   1.013   3.588
 4578SOL    HW125073   1.890   0.980   3.642
 4578SOL    HW225074   2.052   0.983   3.630
 4579SOL     OW25075   2.534   0.203   3.351
 4579SOL    HW125076   2.624   0.187   3.311
 4579SOL    HW225077   2.542   0.208   3.450
 4580SOL     OW25078   1.937   0.345   1.895
 4580SOL    HW125079   1.845   0.317   1.866
 4580SOL    HW225080   1.968   0.422   1.839
 4581SOL     OW25081   3.302   0.856   3.260
 4581SOL    HW125082   3.245   0.908   3.197
 4581SOL    HW225083   3.398   0.868   3.236
 4582SOL     OW25084   1.934   0.166   2.180
 4582SOL    HW125085   1.917   0.249   2.126
 4582SOL    HW225086   2.024   0.129   2.158
 4583SOL     OW25087   3.045   1.335   1.981
 4583SOL    HW125088   2.946   1.324   1.983
 4583SOL    HW225089   3.079   1.350   2.074
 4584SOL     OW25090   2.475   0.842   3.293
 4584SOL    HW125091   2.531   0.923   3.276
 4584SOL    HW225092   2.534   0.762   3.296
 4585SOL     OW25093   3.355   1.767   2.821
 4585SOL    HW125094   3.388   1.831   2.752
 4585SOL    HW225095   3.421   1.761   2.896
 4586SOL     OW25096   2.578   0.565   3.570
 4586SOL    HW125097   2.597   0.630   3.644
 4586SOL    HW225098   2.638   0.485   3.579
 4587SOL     OW25099   3.312   1.220   3.495
 4587SOL    HW125100   3.303   1.210   3.594
 4587SOL    HW225101   3.408   1.213   3.469
 4588SOL     OW25102   2.252   1.741   3.422
 4588SOL    HW125103   2.161   1.782   3.420
 4588SOL    HW225104   2.245   1.647   3.454
 4589SOL     OW25105   3.536   0.883   3.116
 4589SOL    HW125106   3.509   0.794   3.079
 4589SOL    HW225107   3.537   0.951   3.043
 4590SOL     OW25108   3.087   0.325   2.311
 4590SOL    HW125109   3.152   0.251   2.300
 4590SOL    HW225110   3.107   0.375   2.395
 4591SOL     OW25111   2.456   0.745   2.514
 4591SOL    HW125112   2.506   0.830   2.495
 4591SOL    HW225113   2.368   0.747   2.466
 4592SOL     OW25114   3.639   0.342   3.504
 4592SOL    HW125115   3.622   0.373   3.410
 4592SOL    HW225116   3.555   0.305   3.542
 4593SOL     OW25117   3.592   0.934   3.379
 4593SOL    HW125118   3.630   1.025   3.394
 4593SOL    HW225119   3.584   0.917   3.280
 4594SOL     OW25120   2.721   1.374   1.878
 4594SOL    HW125121   2.675   1.389   1.966
 4594SOL    HW225122   2.765   1.459   1.848
 4595SOL     OW25123   2.523   1.790   2.815
 4595SOL    HW125124   2.477   1.878   2.802
 4595SOL    HW225125   2.622   1.802   2.808
 4596SOL     OW25126   2.721   0.956   2.723
 4596SOL    HW125127   2.775   0.887   2.771
 4596SOL    HW225128   2.689   1.025   2.789
 4597SOL     OW25129   2.945   0.984   1.949
 4597SOL    HW125130   2.922   1.037   1.867
 4597SOL    HW225131   3.026   0.928   1.930
 4598SOL     OW25132   3.723   1.569   2.713
 4598SOL    HW125133   3.652   1.557   2.643
 4598SOL    HW225134   3.724   1.490   2.773
 4599SOL     OW25135   2.083   1.314   3.706
 4599SOL    HW125136   2.018   1.241   3.685
 4599SOL    HW225137   2.087   1.328   3.804
 4600SOL     OW25138   1.941   1.240   2.515
 4600SOL    HW125139   1.940   1.193   2.603
 4600SOL    HW225140   2.023   1.212   2.464
 4601SOL     OW25141   2.534   1.391   3.486
 4601SOL    HW125142   2.456   1.341   3.524
 4601SOL    HW225143   2.531   1.486   3.517
 4602SOL     OW25144   3.686   0.192   3.089
 4602SOL    HW125145   3.682   0.102   3.133
 4602SOL    HW225146   3.689   0.181   2.990
 4603SOL     OW25147   2.290   0.424   2.382
 4603SOL    HW125148   2.320   0.352   2.320
 4603SOL    HW225149   2.251   0.384   2.465
 4604SOL     OW25150   3.567   1.487   2.966
 4604SOL    HW125151   3.474   1.462   2.939
 4604SOL    HW225152   3.593   1.437   3.048
 4605SOL     OW25153   2.179   0.547   3.142
 4605SOL    HW125154   2.217   0.488   3.214
 4605SOL    HW225155   2.219   0.521   3.054
 4606SOL     OW25156   2.674   1.586   2.549
 4606SOL    HW125157   2.706   1.596   2.455
 4606SOL    HW225158   2.595   1.524   2.551
 4607SOL     OW25159   3.286   0.214   2.974
 4607SOL    HW125160   3.338   0.149   3.029
 4607SOL    HW225161   3.237   0.277   3.035
 4608SOL     OW25162   2.863   0.034   3.016
 4608SOL    HW125163   2.800  -0.038   2.985
 4608SOL    HW225164   2.956  -0.002   3.016
 4609SOL     OW25165   2.632   1.330   2.163
 4609SOL    HW125166   2.586   1.243   2.180
 4609SOL    HW225167   2.723   1.327   2.204
 4610SOL     OW25168   2.480   1.567   3.146
 4610SOL    HW125169   2.475   1.649   3.203
 4610SOL    HW225170   2.569   1.564   3.101
 4611SOL     OW25171   3.214   0.052   2.030
 4611SOL    HW125172   3.249   0.011   1.946
 4611SOL    HW225173   3.124   0.014   2.050
 4612SOL     OW25174   3.162   0.453   2.553
 4612SOL    HW125175   3.103   0.533   2.557
 4612SOL    HW225176   3.177   0.418   2.646
 4613SOL     OW25177   3.455   0.221   2.744
 4613SOL    HW125178   3.371   0.220   2.798
 4613SOL    HW225179   3.457   0.304   2.688
 4614SOL     OW25180   1.901   1.077   2.162
 4614SOL    HW125181   2.000   1.066   2.153
 4614SOL    HW225182   1.861   0.991   2.194
 4615SOL     OW25183   2.737   1.646   2.199
 4615SOL    HW125184   2.660   1.611   2.145
 4615SOL    HW225185   2.705   1.717   2.261
 4616SOL     OW25186   2.092   0.628   3.837
 4616SOL    HW125187   1.999   0.626   3.874
 4616SOL    HW225188   2.093   0.589   3.745
 4617SOL     OW25189   2.087   0.275   4.720
 4617SOL    HW125190   2.122   0.258   4.812
 4617SOL    HW225191   1.999   0.230   4.708
 4618SOL     OW25192   1.881   0.368   4.371
 4618SOL    HW125193   1.799   0.411   4.410
 4618SOL    HW225194   1.853   0.295   4.308
 4619SOL     OW25195   2.431   1.275   4.889
 4619SOL    HW125196   2.338   1.268   4.852
 4619SOL    HW225197   2.442   1.364   4.933
 4620SOL     OW25198   3.417   1.511   4.427
 4620SOL    HW125199   3.360   1.495   4.508
 4620SOL    HW225200   3.358   1.521   4.347
 4621SOL     OW25201   2.997   0.703   4.441
 4621SOL    HW125202   3.054   0.781   4.416
 4621SOL    HW225203   2.937   0.729   4.517
 4622SOL     OW25204   3.617   0.607   3.955
 4622SOL    HW125205   3.605   0.594   3.856
 4622SOL    HW225206   3.587   0.526   4.004
 4623SOL     OW25207   2.630   1.144   4.747
 4623SOL    HW125208   2.552   1.161   4.807
 4623SOL    HW225209   2.664   1.231   4.711
 4624SOL     OW25210   2.712   0.798   5.547
 4624SOL    HW125211   2.708   0.874   5.612
 4624SOL    HW225212   2.734   0.834   5.456
 4625SOL     OW25213   2.547   1.012   4.389
 4625SOL    HW125214   2.616   0.996   4.459
 4625SOL    HW225215   2.474   1.069   4.427
 4626SOL     OW25216   2.548   1.161   5.527
 4626SOL    HW125217   2.608   1.240   5.541
 4626SOL    HW225218   2.462   1.192   5.486
 4627SOL     OW25219   2.197   1.435   4.785
 4627SOL    HW125220   2.119   1.404   4.732
 4627SOL    HW225221   2.255   1.493   4.728
 4628SOL     OW25222   3.322   1.505   5.063
 4628SOL    HW125223   3.346   1.599   5.089
 4628SOL    HW225224   3.306   1.451   5.145
 4629SOL     OW25225   2.300   0.392   5.223
 4629SOL    HW125226   2.382   0.336   5.232
 4629SOL    HW225227   2.219   0.334   5.227
 4630SOL     OW25228   3.465   0.447   4.461
 4630SOL    HW125229   3.391   0.493   4.411
 4630SOL    HW225230   3.516   0.515   4.514
 4631SOL     OW25231   2.093   1.713   4.207
 4631SOL    HW125232   2.127   1.790   4.261
 4631SOL    HW225233   2.137   1.713   4.117
 4632SOL     OW25234   2.989   1.341   5.414
 4632SOL    HW125235   3.036   1.341   5.502
 4632SOL    HW225236   2.941   1.254   5.403
 4633SOL     OW25237   2.092   1.434   4.262
 4633SOL    HW125238   2.066   1.530   4.262
 4633SOL    HW225239   2.021   1.380   4.307
 4634SOL     OW25240   2.102   1.091   4.610
 4634SOL    HW125241   2.116   1.007   4.662
 4634SOL    HW225242   2.047   1.155   4.665
 4635SOL     OW25243   2.482   1.786   5.163
 4635SOL    HW125244   2.390   1.769   5.198
 4635SOL    HW225245   2.510   1.878   5.189
 4636SOL     OW25246   2.468   0.964   3.847
 4636SOL    HW125247   2.475   1.048   3.793
 4636SOL    HW225248   2.514   0.977   3.935
 4637SOL     OW25249   3.456   0.114   5.204
 4637SOL    HW125250   3.438   0.181   5.132
 4637SOL    HW225251   3.453   0.160   5.293
 4638SOL     OW25252   1.984   0.643   4.287
 4638SOL    HW125253   1.939   0.555   4.304
 4638SOL    HW225254   1.983   0.697   4.371
 4639SOL     OW25255   3.704   1.767   4.083
 4639SOL    HW125256   3.758   1.738   4.163
 4639SOL    HW225257   3.734   1.857   4.054
 4640SOL     OW25258   1.889   1.596   3.841
 4640SOL    HW125259   1.870   1.500   3.862
 4640SOL    HW225260   1.856   1.654   3.916
 4641SOL     OW25261   3.551   0.922   4.336
 4641SOL    HW125262   3.646   0.893   4.344
 4641SOL    HW225263   3.543   0.987   4.261
 4642SOL     OW25264   3.503   1.108   4.156
 4642SOL    HW125265   3.589   1.110   4.104
 4642SOL    HW225266   3.517   1.155   4.244
 4643SOL     OW25267   1.975   0.737   5.321
 4643SOL    HW125268   2.063   0.724   5.366
 4643SOL    HW225269   1.962   0.834   5.299
 4644SOL     OW25270   3.155   1.228   5.147
 4644SOL    HW125271   3.192   1.155   5.089
 4644SOL    HW225272   3.207   1.233   5.232
 4645SOL     OW25273   2.671   0.004   4.226
 4645SOL    HW125274   2.711   0.095   4.217
 4645SOL    HW225275   2.571   0.012   4.232
 4646SOL     OW25276   2.059   0.976   4.988
 4646SOL    HW125277   2.148   0.931   4.974
 4646SOL    HW225278   1.986   0.911   4.969
 4647SOL     OW25279   3.387   0.999   3.914
 4647SOL    HW125280   3.324   0.923   3.927
 4647SOL    HW225281   3.435   1.017   4.000
 4648SOL     OW25282   3.049   1.792   5.340
 4648SOL    HW125283   3.073   1.852   5.264
 4648SOL    HW225284   3.056   1.697   5.310
 4649SOL     OW25285   2.179   0.251   5.525
 4649SOL    HW125286   2.250   0.322   5.531
 4649SOL    HW225287   2.091   0.290   5.553
 4650SOL     OW25288   3.328   1.417   4.677
 4650SOL    HW125289   3.269   1.423   4.757
 4650SOL    HW225290   3.313   1.329   4.631
 4651SOL     OW25291   3.529   1.714   4.296
 4651SOL    HW125292   3.488   1.691   4.208
 4651SOL    HW225293   3.511   1.640   4.361
 4652SOL     OW25294   2.460   0.729   3.994
 4652SOL    HW125295   2.484   0.798   3.926
 4652SOL    HW225296   2.382   0.762   4.048
 4653SOL     OW25297   3.143   0.345   4.668
 4653SOL    HW125298   3.057   0.295   4.655
 4653SOL    HW225299   3.205   0.291   4.724
 4654SOL     OW25300   3.438   1.662   4.031
 4654SOL    HW125301   3.527   1.708   4.034
 4654SOL    HW225302   3.417   1.638   3.936
 4655SOL     OW25303   2.669   0.605   5.189
 4655SOL    HW125304   2.622   0.602   5.278
 4655SOL    HW225305   2.618   0.550   5.123
 4656SOL     OW25306   3.256   0.469   5.398
 4656SOL    HW125307   3.236   0.512   5.486
 4656SOL    HW225308   3.334   0.407   5.407
 4657SOL     OW25309   2.835   0.890   5.296
 4657SOL    HW125310   2.881   0.806   5.267
 4657SOL    HW225311   2.779   0.924   5.221
 4658SOL     OW25312   2.853   0.410   4.966
 4658SOL    HW125313   2.776   0.444   5.020
 4658SOL    HW225314   2.819   0.359   4.887
 4659SOL     OW25315   2.903   0.701   4.153
 4659SOL    HW125316   2.929   0.697   4.249
 4659SOL    HW225317   2.818   0.650   4.139
 4660SOL     OW25318   1.938   0.811   4.513
 4660SOL    HW125319   2.037   0.799   4.522
 4660SOL    HW225320   1.914   0.906   4.534
 4661SOL     OW25321   1.992   1.821   5.295
 4661SOL    HW125322   1.982   1.806   5.394
 4661SOL    HW225323   1.906   1.857   5.259
 4662SOL     OW25324   2.727   0.348   3.919
 4662SOL    HW125325   2.786   0.411   3.870
 4662SOL    HW225326   2.746   0.254   3.890
 4663SOL     OW25327   3.581   0.585   5.555
 4663SOL    HW125328   3.555   0.674   5.519
 4663SOL    HW225329   3.579   0.517   5.482
 4664SOL     OW25330   3.224   1.144   4.269
 4664SOL    HW125331   3.307   1.115   4.221
 4664SOL    HW225332   3.175   1.211   4.213
 4665SOL     OW25333   2.412   0.196   4.609
 4665SOL    HW125334   2.407   0.191   4.709
 4665SOL    HW225335   2.414   0.292   4.580
 4666SOL     OW25336   2.870   1.456   4.201
 4666SOL    HW125337   2.824   1.528   4.149
 4666SOL    HW225338   2.866   1.476   4.299
 4667SOL     OW25339   2.213   1.801   4.577
 4667SOL    HW125340   2.263   1.715   4.583
 4667SOL    HW225341   2.278   1.878   4.574
 4668SOL     OW25342   3.657   1.066   4.597
 4668SOL    HW125343   3.595   1.051   4.521
 4668SOL    HW225344   3.605   1.077   4.682
 4669SOL     OW25345   3.089   1.550   5.230
 4669SOL    HW125346   3.095   1.473   5.294
 4669SOL    HW225347   3.037   1.524   5.150
 4670SOL     OW25348   2.183   0.943   3.966
 4670SOL    HW125349   2.265   0.982   3.924
 4670SOL    HW225350   2.156   0.861   3.917
 4671SOL     OW25351   3.320   0.735   4.452
 4671SOL    HW125352   3.315   0.670   4.527
 4671SOL    HW225353   3.400   0.794   4.465
 4672SOL     OW25354   2.323   1.266   5.451
 4672SOL    HW125355   2.273   1.267   5.365
 4672SOL    HW225356   2.260   1.248   5.527
 4673SOL     OW25357   2.973   1.776   3.961
 4673SOL    HW125358   2.913   1.714   4.011
 4673SOL    HW225359   3.004   1.732   3.876
 4674SOL     OW25360   2.064   0.285   5.222
 4674SOL    HW125361   1.984   0.345   5.209
 4674SOL    HW225362   2.054   0.236   5.308
 4675SOL     OW25363   3.494   1.377   3.805
 4675SOL    HW125364   3.462   1.471   3.795
 4675SOL    HW225365   3.418   1.314   3.793
 4676SOL     OW25366   2.326   1.743   4.047
 4676SOL    HW125367   2.359   1.782   4.133
 4676SOL    HW225368   2.402   1.736   3.982
 4677SOL     OW25369   3.262   0.107   4.150
 4677SOL    HW125370   3.238   0.070   4.060
 4677SOL    HW225371   3.361   0.123   4.154
 4678SOL     OW25372   2.111   1.785   4.965
 4678SOL    HW125373   2.168   1.720   5.015
 4678SOL    HW225374   2.095   1.752   4.872
 4679SOL     OW25375   2.802   1.698   4.628
 4679SOL    HW125376   2.882   1.641   4.649
 4679SOL    HW225377   2.753   1.658   4.551
 4680SOL     OW25378   2.244   0.700   4.204
 4680SOL    HW125379   2.289   0.610   4.201
 4680SOL    HW225380   2.150   0.689   4.237
 4681SOL     OW25381   3.409   0.222   5.453
 4681SOL    HW125382   3.404   0.259   5.545
 4681SOL    HW225383   3.337   0.153   5.441
 4682SOL     OW25384   2.476   0.122   3.841
 4682SOL    HW125385   2.574   0.100   3.848
 4682SOL    HW225386   2.445   0.105   3.748
 4683SOL     OW25387   2.643   0.264   5.473
 4683SOL    HW125388   2.710   0.203   5.516
 4683SOL    HW225389   2.570   0.283   5.538
 4684SOL     OW25390   2.750   1.514   4.919
 4684SOL    HW125391   2.727   1.489   4.825
 4684SOL    HW225392   2.811   1.445   4.958
 4685SOL     OW25393   3.213   0.590   5.157
 4685SOL    HW125394   3.241   0.547   5.242
 4685SOL    HW225395   3.238   0.686   5.158
 4686SOL     OW25396   2.665   1.402   4.648
 4686SOL    HW125397   2.755   1.416   4.606
 4686SOL    HW225398   2.594   1.404   4.577
 4687SOL     OW25399   2.784   0.503   4.623
 4687SOL    HW125400   2.759   0.494   4.527
 4687SOL    HW225401   2.832   0.421   4.654
 4688SOL     OW25402   2.401   0.064   4.236
 4688SOL    HW125403   2.320   0.065   4.294
 4688SOL    HW225404   2.404   0.147   4.181
 4689SOL     OW25405   3.296   1.188   3.765
 4689SOL    HW125406   3.328   1.112   3.822
 4689SOL    HW225407   3.204   1.215   3.795
 4690SOL     OW25408   2.159   0.035   3.895
 4690SOL    HW125409   2.208   0.119   3.874
 4690SOL    HW225410   2.221  -0.030   3.940
 4691SOL     OW25411   2.797   0.236   4.204
 4691SOL    HW125412   2.749   0.277   4.126
 4691SOL    HW225413   2.896   0.234   4.185
 4692SOL     OW25414   2.938   0.683   5.188
 4692SOL    HW125415   2.858   0.622   5.191
 4692SOL    HW225416   3.019   0.630   5.164
 4693SOL     OW25417   3.089   1.570   4.517
 4693SOL    HW125418   3.110   1.644   4.452
 4693SOL    HW225419   3.157   1.570   4.590
 4694SOL     OW25420   3.133   1.797   4.315
 4694SOL    HW125421   3.177   1.861   4.251
 4694SOL    HW225422   3.083   1.849   4.385
 4695SOL     OW25423   2.894   0.549   3.740
 4695SOL    HW125424   2.853   0.631   3.701
 4695SOL    HW225425   2.958   0.575   3.813
 4696SOL     OW25426   1.940   0.556   5.110
 4696SOL    HW125427   2.032   0.555   5.069
 4696SOL    HW225428   1.934   0.630   5.177
 4697SOL     OW25429   2.423   0.222   4.871
 4697SOL    HW125430   2.461   0.138   4.908
 4697SOL    HW225431   2.335   0.241   4.915
 4698SOL     OW25432   2.728   0.454   4.366
 4698SOL    HW125433   2.696   0.526   4.304
 4698SOL    HW225434   2.752   0.373   4.313
 4699SOL     OW25435   2.879   0.039   4.477
 4699SOL    HW125436   2.807   0.044   4.408
 4699SOL    HW225437   2.855  -0.030   4.546
 4700SOL     OW25438   3.291   1.173   4.591
 4700SOL    HW125439   3.236   1.089   4.584
 4700SOL    HW225440   3.317   1.202   4.499
 4701SOL     OW25441   3.328   0.590   4.716
 4701SOL    HW125442   3.298   0.495   4.723
 4701SOL    HW225443   3.401   0.606   4.782
 4702SOL     OW25444   3.719   0.833   4.101
 4702SOL    HW125445   3.761   0.769   4.165
 4702SOL    HW225446   3.681   0.782   4.023
 4703SOL     OW25447   2.350   1.385   3.898
 4703SOL    HW125448   2.263   1.370   3.945
 4703SOL    HW225449   2.333   1.411   3.803
 4704SOL     OW25450   3.526   1.280   4.381
 4704SOL    HW125451   3.625   1.288   4.395
 4704SOL    HW225452   3.481   1.364   4.412
 4705SOL     OW25453   3.252   0.575   3.802
 4705SOL    HW125454   3.198   0.554   3.883
 4705SOL    HW225455   3.343   0.534   3.811
 4706SOL     OW25456   2.389   0.256   4.052
 4706SOL    HW125457   2.416   0.197   3.977
 4706SOL    HW225458   2.389   0.351   4.021
 4707SOL     OW25459   3.616   1.223   5.312
 4707SOL    HW125460   3.707   1.184   5.299
 4707SOL    HW225461   3.624   1.319   5.336
 4708SOL     OW25462   2.926   1.347   5.064
 4708SOL    HW125463   2.846   1.324   5.119
 4708SOL    HW225464   3.009   1.321   5.113
 4709SOL     OW25465   3.454   1.629   5.349
 4709SOL    HW125466   3.481   1.663   5.259
 4709SOL    HW225467   3.533   1.591   5.395
 4710SOL     OW25468   2.973   1.195   4.824
 4710SOL    HW125469   2.933   1.239   4.905
 4710SOL    HW225470   2.932   1.232   4.741
 4711SOL     OW25471   3.500   1.099   4.803
 4711SOL    HW125472   3.505   1.180   4.862
 4711SOL    HW225473   3.414   1.101   4.752
 4712SOL     OW25474   2.777   0.089   5.126
 4712SOL    HW125475   2.802   0.069   5.031
 4712SOL    HW225476   2.849   0.145   5.168
 4713SOL     OW25477   2.842   1.116   5.443
 4713SOL    HW125478   2.743   1.122   5.453
 4713SOL    HW225479   2.865   1.036   5.387
 4714SOL     OW25480   2.567   1.050   4.092
 4714SOL    HW125481   2.553   1.057   4.191
 4714SOL    HW225482   2.651   0.999   4.074
 4715SOL     OW25483   2.272   0.813   4.975
 4715SOL    HW125484   2.358   0.825   5.025
 4715SOL    HW225485   2.230   0.726   5.002
 4716SOL     OW25486   3.136   0.386   4.986
 4716SOL    HW125487   3.157   0.460   5.050
 4716SOL    HW225488   3.047   0.403   4.943
 4717SOL     OW25489   1.926   1.564   5.055
 4717SOL    HW125490   1.880   1.646   5.021
 4717SOL    HW225491   2.024   1.583   5.064
 4718SOL     OW25492   2.229   1.100   4.225
 4718SOL    HW125493   2.222   1.183   4.169
 4718SOL    HW225494   2.233   1.020   4.165
 4719SOL     OW25495   2.428   0.537   4.589
 4719SOL    HW125496   2.440   0.603   4.515
 4719SOL    HW225497   2.474   0.571   4.672
 4720SOL     OW25498   3.114   1.348   4.112
 4720SOL    HW125499   3.164   1.425   4.152
 4720SOL    HW225500   3.019   1.350   4.144
 4721SOL     OW25501   3.134   1.445   4.866
 4721SOL    HW125502   3.181   1.458   4.953
 4721SOL    HW225503   3.068   1.371   4.875
 4722SOL     OW25504   3.444   0.639   4.196
 4722SOL    HW125505   3.413   0.700   4.269
 4722SOL    HW225506   3.494   0.691   4.127
 4723SOL     OW25507   2.216   1.510   5.053
 4723SOL    HW125508   2.195   1.466   4.966
 4723SOL    HW225509   2.313   1.536   5.056
 4724SOL     OW25510   2.264   0.751   5.322
 4724SOL    HW125511   2.332   0.806   5.275
 4724SOL    HW225512   2.304   0.663   5.349
 4725SOL     OW25513   3.449   0.779   5.394
 4725SOL    HW125514   3.357   0.817   5.389
 4725SOL    HW225515   3.509   0.826   5.329
 4726SOL     OW25516   2.875   0.105   5.494
 4726SOL    HW125517   2.881   0.190   5.442
 4726SOL    HW225518   2.907   0.029   5.437
 4727SOL     OW25519   2.366   0.050   5.464
 4727SOL    HW125520   2.324  -0.007   5.394
 4727SOL    HW225521   2.300   0.119   5.496
 4728SOL     OW25522   2.435   0.870   4.753
 4728SOL    HW125523   2.479   0.959   4.744
 4728SOL    HW225524   2.372   0.870   4.830
 4729SOL     OW25525   3.222   0.862   4.769
 4729SOL    HW125526   3.147   0.862   4.703
 4729SOL    HW225527   3.259   0.770   4.778
 4730SOL     OW25528   3.071   0.525   3.999
 4730SOL    HW125529   3.084   0.441   4.053
 4730SOL    HW225530   3.042   0.599   4.059
 4731SOL     OW25531   2.169   0.213   4.955
 4731SOL    HW125532   2.146   0.250   5.045
 4731SOL    HW225533   2.139   0.118   4.949
 4732SOL     OW25534   1.899   1.310   5.006
 4732SOL    HW125535   1.952   1.261   5.074
 4732SOL    HW225536   1.921   1.408   5.011
 4733SOL     OW25537   2.594   0.634   4.788
 4733SOL    HW125538   2.653   0.608   4.712
 4733SOL    HW225539   2.566   0.730   4.777
 4734SOL     OW25540   3.590   0.935   5.578
 4734SOL    HW125541   3.544   0.928   5.489
 4734SOL    HW225542   3.528   0.979   5.644
 4735SOL     OW25543   2.169   0.063   4.342
 4735SOL    HW125544   2.158   0.157   4.375
 4735SOL    HW225545   2.164   0.000   4.419
 4736SOL     OW25546   3.484   0.367   4.098
 4736SOL    HW125547   3.486   0.291   4.162
 4736SOL    HW225548   3.436   0.444   4.138
 4737SOL     OW25549   2.885   0.766   4.690
 4737SOL    HW125550   2.900   0.787   4.786
 4737SOL    HW225551   2.855   0.671   4.681
 4738SOL     OW25552   2.842   1.573   5.424
 4738SOL    HW125553   2.822   1.617   5.336
 4738SOL    HW225554   2.881   1.482   5.408
 4739SOL     OW25555   3.721   1.518   5.329
 4739SOL    HW125556   3.735   1.545   5.234
 4739SOL    HW225557   3.804   1.540   5.382
 4740SOL     OW25558   2.212   0.898   5.528
 4740SOL    HW125559   2.288   0.942   5.576
 4740SOL    HW225560   2.247   0.851   5.446
 4741SOL     OW25561   3.402   0.274   3.849
 4741SOL    HW125562   3.341   0.199   3.872
 4741SOL    HW225563   3.424   0.326   3.932
 4742SOL     OW25564   3.165   0.838   3.766
 4742SOL    HW125565   3.199   0.745   3.781
 4742SOL    HW225566   3.183   0.865   3.671
 4743SOL     OW25567   2.930   1.333   4.573
 4743SOL    HW125568   2.937   1.249   4.518
 4743SOL    HW225569   2.992   1.402   4.537
 4744SOL     OW25570   2.181   0.810   4.673
 4744SOL    HW125571   2.274   0.846   4.678
 4744SOL    HW225572   2.175   0.725   4.725
 4745SOL     OW25573   2.201   0.509   4.730
 4745SOL    HW125574   2.149   0.426   4.713
 4745SOL    HW225575   2.278   0.514   4.666
 4746SOL     OW25576   3.000   0.380   5.402
 4746SOL    HW125577   2.955   0.443   5.466
 4746SOL    HW225578   3.093   0.411   5.385
 4747SOL     OW25579   3.022   0.207   5.201
 4747SOL    HW125580   3.022   0.271   5.278
 4747SOL    HW225581   3.050   0.255   5.118
 4748SOL     OW25582   1.870   1.326   3.924
 4748SOL    HW125583   1.777   1.347   3.893
 4748SOL    HW225584   1.880   1.227   3.937
 4749SOL     OW25585   1.950   1.801   4.651
 4749SOL    HW125586   1.908   1.715   4.624
 4749SOL    HW225587   2.044   1.804   4.617
 4750SOL     OW25588   2.366   1.568   4.634
 4750SOL    HW125589   2.432   1.642   4.643
 4750SOL    HW225590   2.410   1.489   4.592
 4751SOL     OW25591   2.864   0.796   4.962
 4751SOL    HW125592   2.905   0.764   5.048
 4751SOL    HW225593   2.768   0.769   4.959
 4752SOL     OW25594   1.902   0.544   4.838
 4752SOL    HW125595   1.987   0.511   4.797
 4752SOL    HW225596   1.915   0.559   4.936
 4753SOL     OW25597   2.051   0.520   5.446
 4753SOL    HW125598   2.110   0.480   5.376
 4753SOL    HW225599   1.993   0.591   5.405
 4754SOL     OW25600   3.231   0.950   5.384
 4754SOL    HW125601   3.270   1.039   5.404
 4754SOL    HW225602   3.241   0.930   5.287
 4755SOL     OW25603   2.677   0.572   4.049
 4755SOL    HW125604   2.684   0.483   4.003
 4755SOL    HW225605   2.583   0.606   4.041
 4756SOL     OW25606   3.519   0.604   4.930
 4756SOL    HW125607   3.481   0.535   4.992
 4756SOL    HW225608   3.601   0.568   4.886
 4757SOL     OW25609   2.114   1.564   5.468
 4757SOL    HW125610   2.084   1.621   5.544
 4757SOL    HW225611   2.107   1.467   5.494
 4758SOL     OW25612   2.533   0.464   4.993
 4758SOL    HW125613   2.499   0.375   4.963
 4758SOL    HW225614   2.559   0.518   4.913
 4759SOL     OW25615   2.792   1.678   5.189
 4759SOL    HW125616   2.768   1.660   5.094
 4759SOL    HW225617   2.822   1.772   5.199
 4760SOL     OW25618   2.335   0.500   3.915
 4760SOL    HW125619   2.396   0.580   3.919
 4760SOL    HW225620   2.240   0.531   3.922
 4761SOL     OW25621   2.021   1.137   5.190
 4761SOL    HW125622   2.043   1.076   5.266
 4761SOL    HW225623   2.031   1.088   5.104
 4762SOL     OW25624   3.209   1.059   4.958
 4762SOL    HW125625   3.233   0.996   4.884
 4762SOL    HW225626   3.119   1.099   4.940
 4763SOL     OW25627   3.164   0.855   4.033
 4763SOL    HW125628   3.078   0.824   4.075
 4763SOL    HW225629   3.160   0.841   3.934
 4764SOL     OW25630   3.621   1.747   4.878
 4764SOL    HW125631   3.682   1.777   4.805
 4764SOL    HW225632   3.583   1.658   4.856
 4765SOL     OW25633   3.114   1.731   4.852
 4765SOL    HW125634   3.198   1.736   4.798
 4765SOL    HW225635   3.091   1.635   4.870
 4766SOL     OW25636   1.945   1.258   4.746
 4766SOL    HW125637   1.940   1.257   4.846
 4766SOL    HW225638   1.862   1.217   4.708
 4767SOL     OW25639   2.550   1.662   5.440
 4767SOL    HW125640   2.494   1.743   5.449
 4767SOL    HW225641   2.602   1.666   5.354
 4768SOL     OW25642   3.588   0.135   4.247
 4768SOL    HW125643   3.661   0.118   4.180
 4768SOL    HW225644   3.557   0.048   4.285
 4769SOL     OW25645   3.250   1.573   4.201
 4769SOL    HW125646   3.317   1.585   4.127
 4769SOL    HW225647   3.210   1.662   4.224
 4770SOL     OW25648   1.992   1.794   5.575
 4770SOL    HW125649   1.951   1.720   5.628
 4770SOL    HW225650   2.056   1.845   5.633
 4771SOL     OW25651   3.142   0.927   4.396
 4771SOL    HW125652   3.202   0.846   4.398
 4771SOL    HW225653   3.182   0.996   4.336
 4772SOL     OW25654   2.692   1.273   5.146
 4772SOL    HW125655   2.687   1.306   5.241
 4772SOL    HW225656   2.606   1.292   5.100
 4773SOL     OW25657   2.534   1.616   3.878
 4773SOL    HW125658   2.543   1.626   3.779
 4773SOL    HW225659   2.494   1.527   3.899
 4774SOL     OW25660   3.512   1.720   5.118
 4774SOL    HW125661   3.565   1.730   5.034
 4774SOL    HW225662   3.485   1.810   5.152
 4775SOL     OW25663   3.703   0.175   4.687
 4775SOL    HW125664   3.742   0.090   4.651
 4775SOL    HW225665   3.605   0.177   4.668
 4776SOL     OW25666   2.125   0.326   4.444
 4776SOL    HW125667   2.046   0.377   4.410
 4776SOL    HW225668   2.116   0.311   4.542
 4777SOL     OW25669   3.056   1.612   3.755
 4777SOL    HW125670   3.062   1.519   3.792
 4777SOL    HW225671   2.997   1.612   3.675
 4778SOL     OW25672   2.684   1.002   5.096
 4778SOL    HW125673   2.724   1.001   5.004
 4778SOL    HW225674   2.694   1.094   5.136
 4779SOL     OW25675   2.778   0.910   4.015
 4779SOL    HW125676   2.841   0.948   3.947
 4779SOL    HW225677   2.818   0.827   4.054
 4780SOL     OW25678   3.366   1.607   3.768
 4780SOL    HW125679   3.274   1.644   3.775
 4780SOL    HW225680   3.404   1.627   3.678
 4781SOL     OW25681   2.234   1.288   5.214
 4781SOL    HW125682   2.221   1.381   5.180
 4781SOL    HW225683   2.150   1.236   5.201
 4782SOL     OW25684   3.476   1.292   5.013
 4782SOL    HW125685   3.536   1.295   5.093
 4782SOL    HW225686   3.401   1.356   5.026
 4783SOL     OW25687   2.901   1.098   4.420
 4783SOL    HW125688   2.831   1.051   4.474
 4783SOL    HW225689   2.960   1.030   4.377
 4784SOL     OW25690   2.876   0.236   4.695
 4784SOL    HW125691   2.868   0.200   4.602
 4784SOL    HW225692   2.874   0.160   4.760
 4785SOL     OW25693   2.452   1.487   4.215
 4785SOL    HW125694   2.494   1.429   4.145
 4785SOL    HW225695   2.408   1.566   4.171
 4786SOL     OW25696   3.571   0.385   5.105
 4786SOL    HW125697   3.644   0.454   5.109
 4786SOL    HW225698   3.599   0.310   5.046
 4787SOL     OW25699   2.117   1.348   4.014
 4787SOL    HW125700   2.021   1.349   3.987
 4787SOL    HW225701   2.129   1.401   4.098
 4788SOL     OW25702   1.967   1.013   5.450
 4788SOL    HW125703   1.890   0.980   5.504
 4788SOL    HW225704   2.052   0.983   5.492
 4789SOL     OW25705   2.534   0.203   5.213
 4789SOL    HW125706   2.624   0.187   5.173
 4789SOL    HW225707   2.542   0.208   5.312
 4790SOL     OW25708   1.937   0.345   3.757
 4790SOL    HW125709   1.845   0.317   3.728
 4790SOL    HW225710   1.968   0.422   3.701
 4791SOL     OW25711   3.302   0.856   5.122
 4791SOL    HW125712   3.245   0.908   5.059
 4791SOL    HW225713   3.398   0.868   5.098
 4792SOL     OW25714   1.934   0.166   4.042
 4792SOL    HW125715   1.917   0.249   3.988
 4792SOL    HW225716   2.024   0.129   4.020
 4793SOL     OW25717   3.045   1.335   3.843
 4793SOL    HW125718   2.946   1.324   3.845
 4793SOL    HW225719   3.079   1.350   3.936
 4794SOL     OW25720   2.475   0.842   5.155
 4794SOL    HW125721   2.531   0.923   5.138
 4794SOL    HW225722   2.534   0.762   5.158
 4795SOL     OW25723   3.355   1.767   4.683
 4795SOL    HW125724   3.388   1.831   4.614
 4795SOL    HW225725   3.421   1.761   4.758
 4796SOL     OW25726   2.578   0.565   5.432
 4796SOL    HW125727   2.597   0.630   5.506
 4796SOL    HW225728   2.638   0.485   5.441
 4797SOL     OW25729   3.312   1.220   5.357
 4797SOL    HW125730   3.303   1.210   5.456
 4797SOL    HW225731   3.408   1.213   5.331
 4798SOL     OW25732   2.252   1.741   5.284
 4798SOL    HW125733   2.161   1.782   5.282
 4798SOL    HW225734   2.245   1.647   5.316
 4799SOL     OW25735   3.087   0.325   4.173
 4799SOL    HW125736   3.152   0.251   4.162
 4799SOL    HW225737   3.107   0.375   4.257
 4800SOL     OW25738   2.456   0.745   4.376
 4800SOL    HW125739   2.506   0.830   4.357
 4800SOL    HW225740   2.368   0.747   4.328
 4801SOL     OW25741   3.639   0.342   5.366
 4801SOL    HW125742   3.622   0.373   5.272
 4801SOL    HW225743   3.555   0.305   5.404
 4802SOL     OW25744   3.592   0.934   5.241
 4802SOL    HW125745   3.630   1.025   5.256
 4802SOL    HW225746   3.584   0.917   5.142
 4803SOL     OW25747   2.721   1.374   3.740
 4803SOL    HW125748   2.675   1.389   3.828
 4803SOL    HW225749   2.765   1.459   3.710
 4804SOL     OW25750   2.523   1.790   4.677
 4804SOL    HW125751   2.477   1.878   4.664
 4804SOL    HW225752   2.622   1.802   4.670
 4805SOL     OW25753   2.721   0.956   4.585
 4805SOL    HW125754   2.775   0.887   4.633
 4805SOL    HW225755   2.689   1.025   4.651
 4806SOL     OW25756   2.945   0.984   3.811
 4806SOL    HW125757   2.922   1.037   3.729
 4806SOL    HW225758   3.026   0.928   3.792
 4807SOL     OW25759   3.723   1.569   4.575
 4807SOL    HW125760   3.652   1.557   4.505
 4807SOL    HW225761   3.724   1.490   4.635
 4808SOL     OW25762   2.083   1.314   5.568
 4808SOL    HW125763   2.018   1.241   5.547
 4808SOL    HW225764   2.087   1.328   5.666
 4809SOL     OW25765   1.941   1.240   4.377
 4809SOL    HW125766   1.940   1.193   4.465
 4809SOL    HW225767   2.023   1.212   4.326
 4810SOL     OW25768   2.534   1.391   5.348
 4810SOL    HW125769   2.456   1.341   5.386
 4810SOL    HW225770   2.531   1.486   5.379
 4811SOL     OW25771   3.686   0.192   4.951
 4811SOL    HW125772   3.682   0.102   4.995
 4811SOL    HW225773   3.689   0.181   4.852
 4812SOL     OW25774   2.290   0.424   4.244
 4812SOL    HW125775   2.320   0.352   4.182
 4812SOL    HW225776   2.251   0.384   4.327
 4813SOL     OW25777   3.567   1.487   4.828
 4813SOL    HW125778   3.474   1.462   4.801
 4813SOL    HW225779   3.593   1.437   4.910
 4814SOL     OW25780   2.179   0.547   5.004
 4814SOL    HW125781   2.217   0.488   5.076
 4814SOL    HW225782   2.219   0.521   4.916
 4815SOL     OW25783   2.674   1.586   4.411
 4815SOL    HW125784   2.706   1.596   4.317
 4815SOL    HW225785   2.595   1.524   4.413
 4816SOL     OW25786   3.286   0.214   4.836
 4816SOL    HW125787   3.338   0.149   4.891
 4816SOL    HW225788   3.237   0.277   4.897
 4817SOL     OW25789   2.863   0.034   4.878
 4817SOL    HW125790   2.800  -0.038   4.847
 4817SOL    HW225791   2.956  -0.002   4.878
 4818SOL     OW25792   2.632   1.330   4.025
 4818SOL    HW125793   2.586   1.243   4.042
 4818SOL    HW225794   2.723   1.327   4.066
 4819SOL     OW25795   2.480   1.567   5.008
 4819SOL    HW125796   2.475   1.649   5.065
 4819SOL    HW225797   2.569   1.564   4.963
 4820SOL     OW25798   3.214   0.052   3.892
 4820SOL    HW125799   3.249   0.011   3.808
 4820SOL    HW225800   3.124   0.014   3.912
 4821SOL     OW25801   3.162   0.453   4.415
 4821SOL    HW125802   3.103   0.533   4.419
 4821SOL    HW225803   3.177   0.418   4.508
 4822SOL     OW25804   3.455   0.221   4.606
 4822SOL    HW125805   3.371   0.220   4.660
 4822SOL    HW225806   3.457   0.304   4.550
 4823SOL     OW25807   1.901   1.077   4.024
 4823SOL    HW125808   2.000   1.066   4.015
 4823SOL    HW225809   1.861   0.991   4.056
 4824SOL     OW25810   2.737   1.646   4.061
 4824SOL    HW125811   2.660   1.611   4.007
 4824SOL    HW225812   2.705   1.717   4.123
 4825SOL     OW25813   2.092   0.628   5.699
 4825SOL    HW125814   1.999   0.626   5.736
 4825SOL    HW225815   2.093   0.589   5.607
 4826SOL     OW25816   2.087   0.275   6.582
 4826SOL    HW125817   2.122   0.258   6.674
 4826SOL    HW225818   1.999   0.230   6.570
 4827SOL     OW25819   1.881   0.368   6.233
 4827SOL    HW125820   1.799   0.411   6.272
 4827SOL    HW225821   1.853   0.295   6.170
 4828SOL     OW25822   2.431   1.275   6.751
 4828SOL    HW125823   2.338   1.268   6.714
 4828SOL    HW225824   2.442   1.364   6.795
 4829SOL     OW25825   3.417   1.511   6.289
 4829SOL    HW125826   3.360   1.495   6.370
 4829SOL    HW225827   3.358   1.521   6.209
 4830SOL     OW25828   2.997   0.703   6.303
 4830SOL    HW125829   3.054   0.781   6.278
 4830SOL    HW225830   2.937   0.729   6.379
 4831SOL     OW25831   3.617   0.607   5.817
 4831SOL    HW125832   3.605   0.594   5.718
 4831SOL    HW225833   3.587   0.526   5.866
 4832SOL     OW25834   2.630   1.144   6.609
 4832SOL    HW125835   2.552   1.161   6.669
 4832SOL    HW225836   2.664   1.231   6.573
 4833SOL     OW25837   2.712   0.798   7.409
 4833SOL    HW125838   2.708   0.874   7.474
 4833SOL    HW225839   2.734   0.834   7.318
 4834SOL     OW25840   2.547   1.012   6.251
 4834SOL    HW125841   2.616   0.996   6.321
 4834SOL    HW225842   2.474   1.069   6.289
 4835SOL     OW25843   2.548   1.161   7.389
 4835SOL    HW125844   2.608   1.240   7.403
 4835SOL    HW225845   2.462   1.192   7.348
 4836SOL     OW25846   2.197   1.435   6.647
 4836SOL    HW125847   2.119   1.404   6.594
 4836SOL    HW225848   2.255   1.493   6.590
 4837SOL     OW25849   3.322   1.505   6.925
 4837SOL    HW125850   3.346   1.599   6.951
 4837SOL    HW225851   3.306   1.451   7.007
 4838SOL     OW25852   2.300   0.392   7.085
 4838SOL    HW125853   2.382   0.336   7.094
 4838SOL    HW225854   2.219   0.334   7.089
 4839SOL     OW25855   3.465   0.447   6.323
 4839SOL    HW125856   3.391   0.493   6.273
 4839SOL    HW225857   3.516   0.515   6.376
 4840SOL     OW25858   2.093   1.713   6.069
 4840SOL    HW125859   2.127   1.790   6.123
 4840SOL    HW225860   2.137   1.713   5.979
 4841SOL     OW25861   2.989   1.341   7.276
 4841SOL    HW125862   3.036   1.341   7.364
 4841SOL    HW225863   2.941   1.254   7.265
 4842SOL     OW25864   2.092   1.434   6.124
 4842SOL    HW125865   2.066   1.530   6.124
 4842SOL    HW225866   2.021   1.380   6.169
 4843SOL     OW25867   2.102   1.091   6.472
 4843SOL    HW125868   2.116   1.007   6.524
 4843SOL    HW225869   2.047   1.155   6.527
 4844SOL     OW25870   2.482   1.786   7.025
 4844SOL    HW125871   2.390   1.769   7.060
 4844SOL    HW225872   2.510   1.878   7.051
 4845SOL     OW25873   2.468   0.964   5.709
 4845SOL    HW125874   2.475   1.048   5.655
 4845SOL    HW225875   2.514   0.977   5.797
 4846SOL     OW25876   3.456   0.114   7.066
 4846SOL    HW125877   3.438   0.181   6.994
 4846SOL    HW225878   3.453   0.160   7.155
 4847SOL     OW25879   1.984   0.643   6.149
 4847SOL    HW125880   1.939   0.555   6.166
 4847SOL    HW225881   1.983   0.697   6.233
 4848SOL     OW25882   3.704   1.767   5.945
 4848SOL    HW125883   3.758   1.738   6.025
 4848SOL    HW225884   3.734   1.857   5.916
 4849SOL     OW25885   1.889   1.596   5.703
 4849SOL    HW125886   1.870   1.500   5.724
 4849SOL    HW225887   1.856   1.654   5.778
 4850SOL     OW25888   3.551   0.922   6.198
 4850SOL    HW125889   3.646   0.893   6.206
 4850SOL    HW225890   3.543   0.987   6.123
 4851SOL     OW25891   3.503   1.108   6.018
 4851SOL    HW125892   3.589   1.110   5.966
 4851SOL    HW225893   3.517   1.155   6.106
 4852SOL     OW25894   1.975   0.737   7.183
 4852SOL    HW125895   2.063   0.724   7.228
 4852SOL    HW225896   1.962   0.834   7.161
 4853SOL     OW25897   2.475   1.365   6.312
 4853SOL    HW125898   2.426   1.278   6.321
 4853SOL    HW225899   2.452   1.408   6.225
 4854SOL     OW25900   3.155   1.228   7.009
 4854SOL    HW125901   3.192   1.155   6.951
 4854SOL    HW225902   3.207   1.233   7.094
 4855SOL     OW25903   2.671   0.004   6.088
 4855SOL    HW125904   2.711   0.095   6.079
 4855SOL    HW225905   2.571   0.012   6.094
 4856SOL     OW25906   2.059   0.976   6.850
 4856SOL    HW125907   2.148   0.931   6.836
 4856SOL    HW225908   1.986   0.911   6.831
 4857SOL     OW25909   3.387   0.999   5.776
 4857SOL    HW125910   3.324   0.923   5.789
 4857SOL    HW225911   3.435   1.017   5.862
 4858SOL     OW25912   3.049   1.792   7.202
 4858SOL    HW125913   3.073   1.852   7.126
 4858SOL    HW225914   3.056   1.697   7.172
 4859SOL     OW25915   2.179   0.251   7.387
 4859SOL    HW125916   2.250   0.322   7.393
 4859SOL    HW225917   2.091   0.290   7.415
 4860SOL     OW25918   3.328   1.417   6.539
 4860SOL    HW125919   3.269   1.423   6.619
 4860SOL    HW225920   3.313   1.329   6.493
 4861SOL     OW25921   3.529   1.714   6.158
 4861SOL    HW125922   3.488   1.691   6.070
 4861SOL    HW225923   3.511   1.640   6.223
 4862SOL     OW25924   2.460   0.729   5.856
 4862SOL    HW125925   2.484   0.798   5.788
 4862SOL    HW225926   2.382   0.762   5.910
 4863SOL     OW25927   3.143   0.345   6.530
 4863SOL    HW125928   3.057   0.295   6.517
 4863SOL    HW225929   3.205   0.291   6.586
 4864SOL     OW25930   3.438   1.662   5.893
 4864SOL    HW125931   3.527   1.708   5.896
 4864SOL    HW225932   3.417   1.638   5.798
 4865SOL     OW25933   2.669   0.605   7.051
 4865SOL    HW125934   2.622   0.602   7.140
 4865SOL    HW225935   2.618   0.550   6.985
 4866SOL     OW25936   3.256   0.469   7.260
 4866SOL    HW125937   3.236   0.512   7.348
 4866SOL    HW225938   3.334   0.407   7.269
 4867SOL     OW25939   2.835   0.890   7.158
 4867SOL    HW125940   2.881   0.806   7.129
 4867SOL    HW225941   2.779   0.924   7.083
 4868SOL     OW25942   2.853   0.410   6.828
 4868SOL    HW125943   2.776   0.444   6.882
 4868SOL    HW225944   2.819   0.359   6.749
 4869SOL     OW25945   2.903   0.701   6.015
 4869SOL    HW125946   2.929   0.697   6.111
 4869SOL    HW225947   2.818   0.650   6.001
 4870SOL     OW25948   1.938   0.811   6.375
 4870SOL    HW125949   2.037   0.799   6.384
 4870SOL    HW225950   1.914   0.906   6.396
 4871SOL     OW25951   1.992   1.821   7.157
 4871SOL    HW125952   1.982   1.806   7.256
 4871SOL    HW225953   1.906   1.857   7.121
 4872SOL     OW25954   2.727   0.348   5.781
 4872SOL    HW125955   2.786   0.411   5.732
 4872SOL    HW225956   2.746   0.254   5.752
 4873SOL     OW25957   3.581   0.585   7.417
 4873SOL    HW125958   3.555   0.674   7.381
 4873SOL    HW225959   3.579   0.517   7.344
 4874SOL     OW25960   3.224   1.144   6.131
 4874SOL    HW125961   3.307   1.115   6.083
 4874SOL    HW225962   3.175   1.211   6.075
 4875SOL     OW25963   2.412   0.196   6.471
 4875SOL    HW125964   2.407   0.191   6.571
 4875SOL    HW225965   2.414   0.292   6.442
 4876SOL     OW25966   2.870   1.456   6.063
 4876SOL    HW125967   2.824   1.528   6.011
 4876SOL    HW225968   2.866   1.476   6.161
 4877SOL     OW25969   2.213   1.801   6.439
 4877SOL    HW125970   2.263   1.715   6.445
 4877SOL    HW225971   2.278   1.878   6.436
 4878SOL     OW25972   3.657   1.066   6.459
 4878SOL    HW125973   3.595   1.051   6.383
 4878SOL    HW225974   3.605   1.077   6.544
 4879SOL     OW25975   3.089   1.550   7.092
 4879SOL    HW125976   3.095   1.473   7.156
 4879SOL    HW225977   3.037   1.524   7.012
 4880SOL     OW25978   2.183   0.943   5.828
 4880SOL    HW125979   2.265   0.982   5.786
 4880SOL    HW225980   2.156   0.861   5.779
 4881SOL     OW25981   3.320   0.735   6.314
 4881SOL    HW125982   3.315   0.670   6.389
 4881SOL    HW225983   3.400   0.794   6.327
 4882SOL     OW25984   2.323   1.266   7.313
 4882SOL    HW125985   2.273   1.267   7.227
 4882SOL    HW225986   2.260   1.248   7.389
 4883SOL     OW25987   2.973   1.776   5.823
 4883SOL    HW125988   2.913   1.714   5.873
 4883SOL    HW225989   3.004   1.732   5.738
 4884SOL     OW25990   2.064   0.285   7.084
 4884SOL    HW125991   1.984   0.345   7.071
 4884SOL    HW225992   2.054   0.236   7.170
 4885SOL     OW25993   3.494   1.377   5.667
 4885SOL    HW125994   3.462   1.471   5.657
 4885SOL    HW225995   3.418   1.314   5.655
 4886SOL     OW25996   2.326   1.743   5.909
 4886SOL    HW125997   2.359   1.782   5.995
 4886SOL    HW225998   2.402   1.736   5.844
 4887SOL     OW25999   3.262   0.107   6.012
 4887SOL    HW126000   3.238   0.070   5.922
 4887SOL    HW226001   3.361   0.123   6.016
 4888SOL     OW26002   2.111   1.785   6.827
 4888SOL    HW126003   2.168   1.720   6.877
 4888SOL    HW226004   2.095   1.752   6.734
 4889SOL     OW26005   2.802   1.698   6.490
 4889SOL    HW126006   2.882   1.641   6.511
 4889SOL    HW226007   2.753   1.658   6.413
 4890SOL     OW26008   2.244   0.700   6.066
 4890SOL    HW126009   2.289   0.610   6.063
 4890SOL    HW226010   2.150   0.689   6.099
 4891SOL     OW26011   3.409   0.222   7.315
 4891SOL    HW126012   3.404   0.259   7.407
 4891SOL    HW226013   3.337   0.153   7.303
 4892SOL     OW26014   2.476   0.122   5.703
 4892SOL    HW126015   2.574   0.100   5.710
 4892SOL    HW226016   2.445   0.105   5.610
 4893SOL     OW26017   2.643   0.264   7.335
 4893SOL    HW126018   2.710   0.203   7.378
 4893SOL    HW226019   2.570   0.283   7.400
 4894SOL     OW26020   2.750   1.514   6.781
 4894SOL    HW126021   2.727   1.489   6.687
 4894SOL    HW226022   2.811   1.445   6.820
 4895SOL     OW26023   3.213   0.590   7.019
 4895SOL    HW126024   3.241   0.547   7.104
 4895SOL    HW226025   3.238   0.686   7.020
 4896SOL     OW26026   2.665   1.402   6.510
 4896SOL    HW126027   2.755   1.416   6.468
 4896SOL    HW226028   2.594   1.404   6.439
 4897SOL     OW26029   2.784   0.503   6.485
 4897SOL    HW126030   2.759   0.494   6.389
 4897SOL    HW226031   2.832   0.421   6.516
 4898SOL     OW26032   2.401   0.064   6.098
 4898SOL    HW126033   2.320   0.065   6.156
 4898SOL    HW226034   2.404   0.147   6.043
 4899SOL     OW26035   3.296   1.188   5.627
 4899SOL    HW126036   3.328   1.112   5.684
 4899SOL    HW226037   3.204   1.215   5.657
 4900SOL     OW26038   2.159   0.035   5.757
 4900SOL    HW126039   2.208   0.119   5.736
 4900SOL    HW226040   2.221  -0.030   5.802
 4901SOL     OW26041   2.797   0.236   6.066
 4901SOL    HW126042   2.749   0.277   5.988
 4901SOL    HW226043   2.896   0.234   6.047
 4902SOL     OW26044   2.938   0.683   7.050
 4902SOL    HW126045   2.858   0.622   7.053
 4902SOL    HW226046   3.019   0.630   7.026
 4903SOL     OW26047   3.089   1.570   6.379
 4903SOL    HW126048   3.110   1.644   6.314
 4903SOL    HW226049   3.157   1.570   6.452
 4904SOL     OW26050   2.321   1.152   6.327
 4904SOL    HW126051   2.250   1.125   6.392
 4904SOL    HW226052   2.295   1.124   6.234
 4905SOL     OW26053   3.133   1.797   6.177
 4905SOL    HW126054   3.177   1.861   6.113
 4905SOL    HW226055   3.083   1.849   6.247
 4906SOL     OW26056   2.894   0.549   5.602
 4906SOL    HW126057   2.853   0.631   5.563
 4906SOL    HW226058   2.958   0.575   5.675
 4907SOL     OW26059   1.940   0.556   6.972
 4907SOL    HW126060   2.032   0.555   6.931
 4907SOL    HW226061   1.934   0.630   7.039
 4908SOL     OW26062   2.423   0.222   6.733
 4908SOL    HW126063   2.461   0.138   6.770
 4908SOL    HW226064   2.335   0.241   6.777
 4909SOL     OW26065   2.728   0.454   6.228
 4909SOL    HW126066   2.696   0.526   6.166
 4909SOL    HW226067   2.752   0.373   6.175
 4910SOL     OW26068   2.879   0.039   6.339
 4910SOL    HW126069   2.807   0.044   6.270
 4910SOL    HW226070   2.855  -0.030   6.408
 4911SOL     OW26071   3.291   1.173   6.453
 4911SOL    HW126072   3.236   1.089   6.446
 4911SOL    HW226073   3.317   1.202   6.361
 4912SOL     OW26074   3.328   0.590   6.578
 4912SOL    HW126075   3.298   0.495   6.585
 4912SOL    HW226076   3.401   0.606   6.644
 4913SOL     OW26077   3.719   0.833   5.963
 4913SOL    HW126078   3.761   0.769   6.027
 4913SOL    HW226079   3.681   0.782   5.885
 4914SOL     OW26080   3.526   1.280   6.243
 4914SOL    HW126081   3.625   1.288   6.257
 4914SOL    HW226082   3.481   1.364   6.274
 4915SOL     OW26083   3.252   0.575   5.664
 4915SOL    HW126084   3.198   0.554   5.745
 4915SOL    HW226085   3.343   0.534   5.673
 4916SOL     OW26086   2.389   0.256   5.914
 4916SOL    HW126087   2.416   0.197   5.839
 4916SOL    HW226088   2.389   0.351   5.883
 4917SOL     OW26089   3.616   1.223   7.174
 4917SOL    HW126090   3.707   1.184   7.161
 4917SOL    HW226091   3.624   1.319   7.198
 4918SOL     OW26092   2.926   1.347   6.926
 4918SOL    HW126093   2.846   1.324   6.981
 4918SOL    HW226094   3.009   1.321   6.975
 4919SOL     OW26095   3.454   1.629   7.211
 4919SOL    HW126096   3.481   1.663   7.121
 4919SOL    HW226097   3.533   1.591   7.257
 4920SOL     OW26098   2.973   1.195   6.686
 4920SOL    HW126099   2.933   1.239   6.767
 4920SOL    HW226100   2.932   1.232   6.603
 4921SOL     OW26101   3.500   1.099   6.665
 4921SOL    HW126102   3.505   1.180   6.724
 4921SOL    HW226103   3.414   1.101   6.614
 4922SOL     OW26104   2.777   0.089   6.988
 4922SOL    HW126105   2.802   0.069   6.893
 4922SOL    HW226106   2.849   0.145   7.030
 4923SOL     OW26107   2.842   1.116   7.305
 4923SOL    HW126108   2.743   1.122   7.315
 4923SOL    HW226109   2.865   1.036   7.249
 4924SOL     OW26110   2.567   1.050   5.954
 4924SOL    HW126111   2.553   1.057   6.053
 4924SOL    HW226112   2.651   0.999   5.936
 4925SOL     OW26113   2.272   0.813   6.837
 4925SOL    HW126114   2.358   0.825   6.887
 4925SOL    HW226115   2.230   0.726   6.864
 4926SOL     OW26116   3.136   0.386   6.848
 4926SOL    HW126117   3.157   0.460   6.912
 4926SOL    HW226118   3.047   0.403   6.805
 4927SOL     OW26119   1.926   1.564   6.917
 4927SOL    HW126120   1.880   1.646   6.883
 4927SOL    HW226121   2.024   1.583   6.926
 4928SOL     OW26122   2.229   1.100   6.087
 4928SOL    HW126123   2.222   1.183   6.031
 4928SOL    HW226124   2.233   1.020   6.027
 4929SOL     OW26125   2.428   0.537   6.451
 4929SOL    HW126126   2.440   0.603   6.377
 4929SOL    HW226127   2.474   0.571   6.534
 4930SOL     OW26128   3.114   1.348   5.974
 4930SOL    HW126129   3.164   1.425   6.014
 4930SOL    HW226130   3.019   1.350   6.006
 4931SOL     OW26131   3.134   1.445   6.728
 4931SOL    HW126132   3.181   1.458   6.815
 4931SOL    HW226133   3.068   1.371   6.737
 4932SOL     OW26134   3.444   0.639   6.058
 4932SOL    HW126135   3.413   0.700   6.131
 4932SOL    HW226136   3.494   0.691   5.989
 4933SOL     OW26137   2.216   1.510   6.915
 4933SOL    HW126138   2.195   1.466   6.828
 4933SOL    HW226139   2.313   1.536   6.918
 4934SOL     OW26140   2.264   0.751   7.184
 4934SOL    HW126141   2.332   0.806   7.137
 4934SOL    HW226142   2.304   0.663   7.211
 4935SOL     OW26143   3.449   0.779   7.256
 4935SOL    HW126144   3.357   0.817   7.251
 4935SOL    HW226145   3.509   0.826   7.191
 4936SOL     OW26146   2.875   0.105   7.356
 4936SOL    HW126147   2.881   0.190   7.304
 4936SOL    HW226148   2.907   0.029   7.299
 4937SOL     OW26149   2.366   0.050   7.326
 4937SOL    HW126150   2.324  -0.007   7.256
 4937SOL    HW226151   2.300   0.119   7.358
 4938SOL     OW26152   2.435   0.870   6.615
 4938SOL    HW126153   2.479   0.959   6.606
 4938SOL    HW226154   2.372   0.870   6.692
 4939SOL     OW26155   3.222   0.862   6.631
 4939SOL    HW126156   3.147   0.862   6.565
 4939SOL    HW226157   3.259   0.770   6.640
 4940SOL     OW26158   3.071   0.525   5.861
 4940SOL    HW126159   3.084   0.441   5.915
 4940SOL    HW226160   3.042   0.599   5.921
 4941SOL     OW26161   2.169   0.213   6.817
 4941SOL    HW126162   2.146   0.250   6.907
 4941SOL    HW226163   2.139   0.118   6.811
 4942SOL     OW26164   1.899   1.310   6.868
 4942SOL    HW126165   1.952   1.261   6.936
 4942SOL    HW226166   1.921   1.408   6.873
 4943SOL     OW26167   2.594   0.634   6.650
 4943SOL    HW126168   2.653   0.608   6.574
 4943SOL    HW226169   2.566   0.730   6.639
 4944SOL     OW26170   3.590   0.935   7.440
 4944SOL    HW126171   3.544   0.928   7.351
 4944SOL    HW226172   3.528   0.979   7.506
 4945SOL     OW26173   2.169   0.063   6.204
 4945SOL    HW126174   2.158   0.157   6.237
 4945SOL    HW226175   2.164   0.000   6.281
 4946SOL     OW26176   3.484   0.367   5.960
 4946SOL    HW126177   3.486   0.291   6.024
 4946SOL    HW226178   3.436   0.444   6.000
 4947SOL     OW26179   2.885   0.766   6.552
 4947SOL    HW126180   2.900   0.787   6.648
 4947SOL    HW226181   2.855   0.671   6.543
 4948SOL     OW26182   2.842   1.573   7.286
 4948SOL    HW126183   2.822   1.617   7.198
 4948SOL    HW226184   2.881   1.482   7.270
 4949SOL     OW26185   3.721   1.518   7.191
 4949SOL    HW126186   3.735   1.545   7.096
 4949SOL    HW226187   3.804   1.540   7.244
 4950SOL     OW26188   2.212   0.898   7.390
 4950SOL    HW126189   2.288   0.942   7.438
 4950SOL    HW226190   2.247   0.851   7.308
 4951SOL     OW26191   3.402   0.274   5.711
 4951SOL    HW126192   3.341   0.199   5.734
 4951SOL    HW226193   3.424   0.326   5.794
 4952SOL     OW26194   3.165   0.838   5.628
 4952SOL    HW126195   3.199   0.745   5.643
 4952SOL    HW226196   3.183   0.865   5.533
 4953SOL     OW26197   2.930   1.333   6.435
 4953SOL    HW126198   2.937   1.249   6.380
 4953SOL    HW226199   2.992   1.402   6.399
 4954SOL     OW26200   2.181   0.810   6.535
 4954SOL    HW126201   2.274   0.846   6.540
 4954SOL    HW226202   2.175   0.725   6.587
 4955SOL     OW26203   2.201   0.509   6.592
 4955SOL    HW126204   2.149   0.426   6.575
 4955SOL    HW226205   2.278   0.514   6.528
 4956SOL     OW26206   3.000   0.380   7.264
 4956SOL    HW126207   2.955   0.443   7.328
 4956SOL    HW226208   3.093   0.411   7.247
 4957SOL     OW26209   3.022   0.207   7.063
 4957SOL    HW126210   3.022   0.271   7.140
 4957SOL    HW226211   3.050   0.255   6.980
 4958SOL     OW26212   1.870   1.326   5.786
 4958SOL    HW126213   1.777   1.347   5.755
 4958SOL    HW226214   1.880   1.227   5.799
 4959SOL     OW26215   1.950   1.801   6.513
 4959SOL    HW126216   1.908   1.715   6.486
 4959SOL    HW226217   2.044   1.804   6.479
 4960SOL     OW26218   2.366   1.568   6.496
 4960SOL    HW126219   2.432   1.642   6.505
 4960SOL    HW226220   2.410   1.489   6.454
 4961SOL     OW26221   2.864   0.796   6.824
 4961SOL    HW126222   2.905   0.764   6.910
 4961SOL    HW226223   2.768   0.769   6.821
 4962SOL     OW26224   1.902   0.544   6.700
 4962SOL    HW126225   1.987   0.511   6.659
 4962SOL    HW226226   1.915   0.559   6.798
 4963SOL     OW26227   2.051   0.520   7.308
 4963SOL    HW126228   2.110   0.480   7.238
 4963SOL    HW226229   1.993   0.591   7.267
 4964SOL     OW26230   3.231   0.950   7.246
 4964SOL    HW126231   3.270   1.039   7.266
 4964SOL    HW226232   3.241   0.930   7.149
 4965SOL     OW26233   2.677   0.572   5.911
 4965SOL    HW126234   2.684   0.483   5.865
 4965SOL    HW226235   2.583   0.606   5.903
 4966SOL     OW26236   3.519   0.604   6.792
 4966SOL    HW126237   3.481   0.535   6.854
 4966SOL    HW226238   3.601   0.568   6.748
 4967SOL     OW26239   2.114   1.564   7.330
 4967SOL    HW126240   2.084   1.621   7.406
 4967SOL    HW226241   2.107   1.467   7.356
 4968SOL     OW26242   2.533   0.464   6.855
 4968SOL    HW126243   2.499   0.375   6.825
 4968SOL    HW226244   2.559   0.518   6.775
 4969SOL     OW26245   2.792   1.678   7.051
 4969SOL    HW126246   2.768   1.660   6.956
 4969SOL    HW226247   2.822   1.772   7.061
 4970SOL     OW26248   2.335   0.500   5.777
 4970SOL    HW126249   2.396   0.580   5.781
 4970SOL    HW226250   2.240   0.531   5.784
 4971SOL     OW26251   2.021   1.137   7.052
 4971SOL    HW126252   2.043   1.076   7.128
 4971SOL    HW226253   2.031   1.088   6.966
 4972SOL     OW26254   3.209   1.059   6.820
 4972SOL    HW126255   3.233   0.996   6.746
 4972SOL    HW226256   3.119   1.099   6.802
 4973SOL     OW26257   3.164   0.855   5.895
 4973SOL    HW126258   3.078   0.824   5.937
 4973SOL    HW226259   3.160   0.841   5.796
 4974SOL     OW26260   3.621   1.747   6.740
 4974SOL    HW126261   3.682   1.777   6.667
 4974SOL    HW226262   3.583   1.658   6.718
 4975SOL     OW26263   3.114   1.731   6.714
 4975SOL    HW126264   3.198   1.736   6.660
 4975SOL    HW226265   3.091   1.635   6.732
 4976SOL     OW26266   1.945   1.258   6.608
 4976SOL    HW126267   1.940   1.257   6.708
 4976SOL    HW226268   1.862   1.217   6.570
 4977SOL     OW26269   2.550   1.662   7.302
 4977SOL    HW126270   2.494   1.743   7.311
 4977SOL    HW226271   2.602   1.666   7.216
 4978SOL     OW26272   3.588   0.135   6.109
 4978SOL    HW126273   3.661   0.118   6.042
 4978SOL    HW226274   3.557   0.048   6.147
 4979SOL     OW26275   3.250   1.573   6.063
 4979SOL    HW126276   3.317   1.585   5.989
 4979SOL    HW226277   3.210   1.662   6.086
 4980SOL     OW26278   1.992   1.794   7.437
 4980SOL    HW126279   1.951   1.720   7.490
 4980SOL    HW226280   2.056   1.845   7.495
 4981SOL     OW26281   3.142   0.927   6.258
 4981SOL    HW126282   3.202   0.846   6.260
 4981SOL    HW226283   3.182   0.996   6.198
 4982SOL     OW26284   2.692   1.273   7.008
 4982SOL    HW126285   2.687   1.306   7.103
 4982SOL    HW226286   2.606   1.292   6.962
 4983SOL     OW26287   3.512   1.720   6.980
 4983SOL    HW126288   3.565   1.730   6.896
 4983SOL    HW226289   3.485   1.810   7.014
 4984SOL     OW26290   3.703   0.175   6.549
 4984SOL    HW126291   3.742   0.090   6.513
 4984SOL    HW226292   3.605   0.177   6.530
 4985SOL     OW26293   2.125   0.326   6.306
 4985SOL    HW126294   2.046   0.377   6.272
 4985SOL    HW226295   2.116   0.311   6.404
 4986SOL     OW26296   3.056   1.612   5.617
 4986SOL    HW126297   3.062   1.519   5.654
 4986SOL    HW226298   2.997   1.612   5.537
 4987SOL     OW26299   2.684   1.002   6.958
 4987SOL    HW126300   2.724   1.001   6.866
 4987SOL    HW226301   2.694   1.094   6.998
 4988SOL     OW26302   2.778   0.910   5.877
 4988SOL    HW126303   2.841   0.948   5.809
 4988SOL    HW226304   2.818   0.827   5.916
 4989SOL     OW26305   3.366   1.607   5.630
 4989SOL    HW126306   3.274   1.644   5.637
 4989SOL    HW226307   3.404   1.627   5.540
 4990SOL     OW26308   2.234   1.288   7.076
 4990SOL    HW126309   2.221   1.381   7.042
 4990SOL    HW226310   2.150   1.236   7.063
 4991SOL     OW26311   3.476   1.292   6.875
 4991SOL    HW126312   3.536   1.295   6.955
 4991SOL    HW226313   3.401   1.356   6.888
 4992SOL     OW26314   2.901   1.098   6.282
 4992SOL    HW126315   2.831   1.051   6.336
 4992SOL    HW226316   2.960   1.030   6.239
 4993SOL     OW26317   2.876   0.236   6.557
 4993SOL    HW126318   2.868   0.200   6.464
 4993SOL    HW226319   2.874   0.160   6.622
 4994SOL     OW26320   2.452   1.487   6.077
 4994SOL    HW126321   2.494   1.429   6.007
 4994SOL    HW226322   2.408   1.566   6.033
 4995SOL     OW26323   3.571   0.385   6.967
 4995SOL    HW126324   3.644   0.454   6.971
 4995SOL    HW226325   3.599   0.310   6.908
 4996SOL     OW26326   2.117   1.348   5.876
 4996SOL    HW126327   2.021   1.349   5.849
 4996SOL    HW226328   2.129   1.401   5.960
 4997SOL     OW26329   1.967   1.013   7.312
 4997SOL    HW126330   1.890   0.980   7.366
 4997SOL    HW226331   2.052   0.983   7.354
 4998SOL     OW26332   2.534   0.203   7.075
 4998SOL    HW126333   2.624   0.187   7.035
 4998SOL    HW226334   2.542   0.208   7.174
 4999SOL     OW26335   1.937   0.345   5.619
 4999SOL    HW126336   1.845   0.317   5.590
 4999SOL    HW226337   1.968   0.422   5.563
 5000SOL     OW26338   3.302   0.856   6.984
 5000SOL    HW126339   3.245   0.908   6.921
 5000SOL    HW226340   3.398   0.868   6.960
 5001SOL     OW26341   1.934   0.166   5.904
 5001SOL    HW126342   1.917   0.249   5.850
 5001SOL    HW226343   2.024   0.129   5.882
 5002SOL     OW26344   3.045   1.335   5.705
 5002SOL    HW126345   2.946   1.324   5.707
 5002SOL    HW226346   3.079   1.350   5.798
 5003SOL     OW26347   2.475   0.842   7.017
 5003SOL    HW126348   2.531   0.923   7.000
 5003SOL    HW226349   2.534   0.762   7.020
 5004SOL     OW26350   3.355   1.767   6.545
 5004SOL    HW126351   3.388   1.831   6.476
 5004SOL    HW226352   3.421   1.761   6.620
 5005SOL     OW26353   2.578   0.565   7.294
 5005SOL    HW126354   2.597   0.630   7.368
 5005SOL    HW226355   2.638   0.485   7.303
 5006SOL     OW26356   3.312   1.220   7.219
 5006SOL    HW126357   3.303   1.210   7.318
 5006SOL    HW226358   3.408   1.213   7.193
 5007SOL     OW26359   2.252   1.741   7.146
 5007SOL    HW126360   2.161   1.782   7.144
 5007SOL    HW226361   2.245   1.647   7.178
 5008SOL     OW26362   3.536   0.883   6.840
 5008SOL    HW126363   3.509   0.794   6.803
 5008SOL    HW226364   3.537   0.951   6.767
 5009SOL     OW26365   3.087   0.325   6.035
 5009SOL    HW126366   3.152   0.251   6.024
 5009SOL    HW226367   3.107   0.375   6.119
 5010SOL     OW26368   2.456   0.745   6.238
 5010SOL    HW126369   2.506   0.830   6.219
 5010SOL    HW226370   2.368   0.747   6.190
 5011SOL     OW26371   3.639   0.342   7.228
 5011SOL    HW126372   3.622   0.373   7.134
 5011SOL    HW226373   3.555   0.305   7.266
 5012SOL     OW26374   3.592   0.934   7.103
 5012SOL    HW126375   3.630   1.025   7.118
 5012SOL    HW226376   3.584   0.917   7.004
 5013SOL     OW26377   2.721   1.374   5.602
 5013SOL    HW126378   2.675   1.389   5.690
 5013SOL    HW226379   2.765   1.459   5.572
 5014SOL     OW26380   2.523   1.790   6.539
 5014SOL    HW126381   2.477   1.878   6.526
 5014SOL    HW226382   2.622   1.802   6.532
 5015SOL     OW26383   2.721   0.956   6.447
 5015SOL    HW126384   2.775   0.887   6.495
 5015SOL    HW226385   2.689   1.025   6.513
 5016SOL     OW26386   2.945   0.984   5.673
 5016SOL    HW126387   2.922   1.037   5.591
 5016SOL    HW226388   3.026   0.928   5.654
 5017SOL     OW26389   3.723   1.569   6.437
 5017SOL    HW126390   3.652   1.557   6.367
 5017SOL    HW226391   3.724   1.490   6.497
 5018SOL     OW26392   2.083   1.314   7.430
 5018SOL    HW126393   2.018   1.241   7.409
 5018SOL    HW226394   2.087   1.328   7.528
 5019SOL     OW26395   1.941   1.240   6.239
 5019SOL    HW126396   1.940   1.193   6.327
 5019SOL    HW226397   2.023   1.212   6.188
 5020SOL     OW26398   2.534   1.391   7.210
 5020SOL    HW126399   2.456   1.341   7.248
 5020SOL    HW226400   2.531   1.486   7.241
 5021SOL     OW26401   3.686   0.192   6.813
 5021SOL    HW126402   3.682   0.102   6.857
 5021SOL    HW226403   3.689   0.181   6.714
 5022SOL     OW26404   2.290   0.424   6.106
 5022SOL    HW126405   2.320   0.352   6.044
 5022SOL    HW226406   2.251   0.384   6.189
 5023SOL     OW26407   3.567   1.487   6.690
 5023SOL    HW126408   3.474   1.462   6.663
 5023SOL    HW226409   3.593   1.437   6.772
 5024SOL     OW26410   2.179   0.547   6.866
 5024SOL    HW126411   2.217   0.488   6.938
 5024SOL    HW226412   2.219   0.521   6.778
 5025SOL     OW26413   2.674   1.586   6.273
 5025SOL    HW126414   2.706   1.596   6.179
 5025SOL    HW226415   2.595   1.524   6.275
 5026SOL     OW26416   3.286   0.214   6.698
 5026SOL    HW126417   3.338   0.149   6.753
 5026SOL    HW226418   3.237   0.277   6.759
 5027SOL     OW26419   2.863   0.034   6.740
 5027SOL    HW126420   2.800  -0.038   6.709
 5027SOL    HW226421   2.956  -0.002   6.740
 5028SOL     OW26422   2.632   1.330   5.887
 5028SOL    HW126423   2.586   1.243   5.904
 5028SOL    HW226424   2.723   1.327   5.928
 5029SOL     OW26425   2.480   1.567   6.870
 5029SOL    HW126426   2.475   1.649   6.927
 5029SOL    HW226427   2.569   1.564   6.825
 5030SOL     OW26428   3.214   0.052   5.754
 5030SOL    HW126429   3.249   0.011   5.670
 5030SOL    HW226430   3.124   0.014   5.774
 5031SOL     OW26431   3.162   0.453   6.277
 5031SOL    HW126432   3.103   0.533   6.281
 5031SOL    HW226433   3.177   0.418   6.370
 5032SOL     OW26434   3.455   0.221   6.468
 5032SOL    HW126435   3.371   0.220   6.522
 5032SOL    HW226436   3.457   0.304   6.412
 5033SOL     OW26437   1.901   1.077   5.886
 5033SOL    HW126438   2.000   1.066   5.877
 5033SOL    HW226439   1.861   0.991   5.918
 5034SOL     OW26440   2.737   1.646   5.923
 5034SOL    HW126441   2.660   1.611   5.869
 5034SOL    HW226442   2.705   1.717   5.985
 5035SOL     OW26443   2.092   0.628   7.561
 5035SOL    HW126444   1.999   0.626   7.598
 5035SOL    HW226445   2.093   0.589   7.469
 5036SOL     OW26446   2.087   0.275   8.444
 5036SOL    HW126447   2.122   0.258   8.536
 5036SOL    HW226448   1.999   0.230   8.432
 5037SOL     OW26449   1.881   0.368   8.095
 5037SOL    HW126450   1.799   0.411   8.134
 5037SOL    HW226451   1.853   0.295   8.032
 5038SOL     OW26452   2.431   1.275   8.613
 5038SOL    HW126453   2.338   1.268   8.576
 5038SOL    HW226454   2.442   1.364   8.657
 5039SOL     OW26455   3.417   1.511   8.151
 5039SOL    HW126456   3.360   1.495   8.232
 5039SOL    HW226457   3.358   1.521   8.071
 5040SOL     OW26458   2.997   0.703   8.165
 5040SOL    HW126459   3.054   0.781   8.140
 5040SOL    HW226460   2.937   0.729   8.241
 5041SOL     OW26461   3.617   0.607   7.679
 5041SOL    HW126462   3.605   0.594   7.580
 5041SOL    HW226463   3.587   0.526   7.728
 5042SOL     OW26464   2.630   1.144   8.471
 5042SOL    HW126465   2.552   1.161   8.531
 5042SOL    HW226466   2.664   1.231   8.435
 5043SOL     OW26467   2.547   1.012   8.113
 5043SOL    HW126468   2.616   0.996   8.183
 5043SOL    HW226469   2.474   1.069   8.151
 5044SOL     OW26470   2.548   1.161   9.251
 5044SOL    HW126471   2.608   1.240   9.265
 5044SOL    HW226472   2.462   1.192   9.210
 5045SOL     OW26473   2.197   1.435   8.509
 5045SOL    HW126474   2.119   1.404   8.456
 5045SOL    HW226475   2.255   1.493   8.452
 5046SOL     OW26476   3.322   1.505   8.787
 5046SOL    HW126477   3.346   1.599   8.813
 5046SOL    HW226478   3.306   1.451   8.869
 5047SOL     OW26479   2.300   0.392   8.947
 5047SOL    HW126480   2.382   0.336   8.956
 5047SOL    HW226481   2.219   0.334   8.951
 5048SOL     OW26482   3.465   0.447   8.185
 5048SOL    HW126483   3.391   0.493   8.135
 5048SOL    HW226484   3.516   0.515   8.238
 5049SOL     OW26485   2.093   1.713   7.931
 5049SOL    HW126486   2.127   1.790   7.985
 5049SOL    HW226487   2.137   1.713   7.841
 5050SOL     OW26488   2.989   1.341   9.138
 5050SOL    HW126489   3.036   1.341   9.226
 5050SOL    HW226490   2.941   1.254   9.127
 5051SOL     OW26491   2.092   1.434   7.986
 5051SOL    HW126492   2.066   1.530   7.986
 5051SOL    HW226493   2.021   1.380   8.031
 5052SOL     OW26494   2.102   1.091   8.334
 5052SOL    HW126495   2.116   1.007   8.386
 5052SOL    HW226496   2.047   1.155   8.389
 5053SOL     OW26497   2.482   1.786   8.887
 5053SOL    HW126498   2.390   1.769   8.922
 5053SOL    HW226499   2.510   1.878   8.913
 5054SOL     OW26500   2.468   0.964   7.571
 5054SOL    HW126501   2.475   1.048   7.517
 5054SOL    HW226502   2.514   0.977   7.659
 5055SOL     OW26503   3.456   0.114   8.928
 5055SOL    HW126504   3.438   0.181   8.856
 5055SOL    HW226505   3.453   0.160   9.017
 5056SOL     OW26506   1.984   0.643   8.011
 5056SOL    HW126507   1.939   0.555   8.028
 5056SOL    HW226508   1.983   0.697   8.095
 5057SOL     OW26509   3.704   1.767   7.807
 5057SOL    HW126510   3.758   1.738   7.887
 5057SOL    HW226511   3.734   1.857   7.778
 5058SOL     OW26512   1.889   1.596   7.565
 5058SOL    HW126513   1.870   1.500   7.586
 5058SOL    HW226514   1.856   1.654   7.640
 5059SOL     OW26515   3.551   0.922   8.060
 5059SOL    HW126516   3.646   0.893   8.068
 5059SOL    HW226517   3.543   0.987   7.985
 5060SOL     OW26518   3.503   1.108   7.880
 5060SOL    HW126519   3.589   1.110   7.828
 5060SOL    HW226520   3.517   1.155   7.968
 5061SOL     OW26521   1.975   0.737   9.045
 5061SOL    HW126522   2.063   0.724   9.090
 5061SOL    HW226523   1.962   0.834   9.023
 5062SOL     OW26524   2.475   1.365   8.174
 5062SOL    HW126525   2.426   1.278   8.183
 5062SOL    HW226526   2.452   1.408   8.087
 5063SOL     OW26527   3.155   1.228   8.871
 5063SOL    HW126528   3.192   1.155   8.813
 5063SOL    HW226529   3.207   1.233   8.956
 5064SOL     OW26530   2.671   0.004   7.950
 5064SOL    HW126531   2.711   0.095   7.941
 5064SOL    HW226532   2.571   0.012   7.956
 5065SOL     OW26533   2.059   0.976   8.712
 5065SOL    HW126534   2.148   0.931   8.698
 5065SOL    HW226535   1.986   0.911   8.693
 5066SOL     OW26536   3.387   0.999   7.638
 5066SOL    HW126537   3.324   0.923   7.651
 5066SOL    HW226538   3.435   1.017   7.724
 5067SOL     OW26539   3.049   1.792   9.064
 5067SOL    HW126540   3.073   1.852   8.988
 5067SOL    HW226541   3.056   1.697   9.034
 5068SOL     OW26542   3.328   1.417   8.401
 5068SOL    HW126543   3.269   1.423   8.481
 5068SOL    HW226544   3.313   1.329   8.355
 5069SOL     OW26545   3.529   1.714   8.020
 5069SOL    HW126546   3.488   1.691   7.932
 5069SOL    HW226547   3.511   1.640   8.085
 5070SOL     OW26548   2.460   0.729   7.718
 5070SOL    HW126549   2.484   0.798   7.650
 5070SOL    HW226550   2.382   0.762   7.772
 5071SOL     OW26551   3.143   0.345   8.392
 5071SOL    HW126552   3.057   0.295   8.379
 5071SOL    HW226553   3.205   0.291   8.448
 5072SOL     OW26554   3.438   1.662   7.755
 5072SOL    HW126555   3.527   1.708   7.758
 5072SOL    HW226556   3.417   1.638   7.660
 5073SOL     OW26557   3.256   0.469   9.122
 5073SOL    HW126558   3.236   0.512   9.210
 5073SOL    HW226559   3.334   0.407   9.131
 5074SOL     OW26560   2.853   0.410   8.690
 5074SOL    HW126561   2.776   0.444   8.744
 5074SOL    HW226562   2.819   0.359   8.611
 5075SOL     OW26563   2.903   0.701   7.877
 5075SOL    HW126564   2.929   0.697   7.973
 5075SOL    HW226565   2.818   0.650   7.863
 5076SOL     OW26566   1.938   0.811   8.237
 5076SOL    HW126567   2.037   0.799   8.246
 5076SOL    HW226568   1.914   0.906   8.258
 5077SOL     OW26569   1.992   1.821   9.019
 5077SOL    HW126570   1.982   1.806   9.118
 5077SOL    HW226571   1.906   1.857   8.983
 5078SOL     OW26572   2.727   0.348   7.643
 5078SOL    HW126573   2.786   0.411   7.594
 5078SOL    HW226574   2.746   0.254   7.614
 5079SOL     OW26575   3.581   0.585   9.279
 5079SOL    HW126576   3.555   0.674   9.243
 5079SOL    HW226577   3.579   0.517   9.206
 5080SOL     OW26578   3.224   1.144   7.993
 5080SOL    HW126579   3.307   1.115   7.945
 5080SOL    HW226580   3.175   1.211   7.937
 5081SOL     OW26581   2.412   0.196   8.333
 5081SOL    HW126582   2.407   0.191   8.433
 5081SOL    HW226583   2.414   0.292   8.304
 5082SOL     OW26584   2.870   1.456   7.925
 5082SOL    HW126585   2.824   1.528   7.873
 5082SOL    HW226586   2.866   1.476   8.023
 5083SOL     OW26587   2.213   1.801   8.301
 5083SOL    HW126588   2.263   1.715   8.307
 5083SOL    HW226589   2.278   1.878   8.298
 5084SOL     OW26590   3.657   1.066   8.321
 5084SOL    HW126591   3.595   1.051   8.245
 5084SOL    HW226592   3.605   1.077   8.406
 5085SOL     OW26593   3.089   1.550   8.954
 5085SOL    HW126594   3.095   1.473   9.018
 5085SOL    HW226595   3.037   1.524   8.874
 5086SOL     OW26596   2.183   0.943   7.690
 5086SOL    HW126597   2.265   0.982   7.648
 5086SOL    HW226598   2.156   0.861   7.641
 5087SOL     OW26599   3.320   0.735   8.176
 5087SOL    HW126600   3.315   0.670   8.251
 5087SOL    HW226601   3.400   0.794   8.189
 5088SOL     OW26602   2.323   1.266   9.175
 5088SOL    HW126603   2.273   1.267   9.089
 5088SOL    HW226604   2.260   1.248   9.251
 5089SOL     OW26605   2.973   1.776   7.685
 5089SOL    HW126606   2.913   1.714   7.735
 5089SOL    HW226607   3.004   1.732   7.600
 5090SOL     OW26608   3.494   1.377   7.529
 5090SOL    HW126609   3.462   1.471   7.519
 5090SOL    HW226610   3.418   1.314   7.517
 5091SOL     OW26611   2.326   1.743   7.771
 5091SOL    HW126612   2.359   1.782   7.857
 5091SOL    HW226613   2.402   1.736   7.706
 5092SOL     OW26614   3.262   0.107   7.874
 5092SOL    HW126615   3.238   0.070   7.784
 5092SOL    HW226616   3.361   0.123   7.878
 5093SOL     OW26617   2.111   1.785   8.689
 5093SOL    HW126618   2.168   1.720   8.739
 5093SOL    HW226619   2.095   1.752   8.596
 5094SOL     OW26620   2.802   1.698   8.352
 5094SOL    HW126621   2.882   1.641   8.373
 5094SOL    HW226622   2.753   1.658   8.275
 5095SOL     OW26623   2.244   0.700   7.928
 5095SOL    HW126624   2.289   0.610   7.925
 5095SOL    HW226625   2.150   0.689   7.961
 5096SOL     OW26626   3.409   0.222   9.177
 5096SOL    HW126627   3.404   0.259   9.269
 5096SOL    HW226628   3.337   0.153   9.165
 5097SOL     OW26629   2.476   0.122   7.565
 5097SOL    HW126630   2.574   0.100   7.572
 5097SOL    HW226631   2.445   0.105   7.472
 5098SOL     OW26632   2.643   0.264   9.197
 5098SOL    HW126633   2.710   0.203   9.240
 5098SOL    HW226634   2.570   0.283   9.262
 5099SOL     OW26635   2.750   1.514   8.643
 5099SOL    HW126636   2.727   1.489   8.549
 5099SOL    HW226637   2.811   1.445   8.682
 5100SOL     OW26638   3.213   0.590   8.881
 5100SOL    HW126639   3.241   0.547   8.966
 5100SOL    HW226640   3.238   0.686   8.882
 5101SOL     OW26641   2.665   1.402   8.372
 5101SOL    HW126642   2.755   1.416   8.330
 5101SOL    HW226643   2.594   1.404   8.301
 5102SOL     OW26644   2.784   0.503   8.347
 5102SOL    HW126645   2.759   0.494   8.251
 5102SOL    HW226646   2.832   0.421   8.378
 5103SOL     OW26647   2.401   0.064   7.960
 5103SOL    HW126648   2.320   0.065   8.018
 5103SOL    HW226649   2.404   0.147   7.905
 5104SOL     OW26650   3.296   1.188   7.489
 5104SOL    HW126651   3.328   1.112   7.546
 5104SOL    HW226652   3.204   1.215   7.519
 5105SOL     OW26653   2.159   0.035   7.619
 5105SOL    HW126654   2.208   0.119   7.598
 5105SOL    HW226655   2.221  -0.030   7.664
 5106SOL     OW26656   2.797   0.236   7.928
 5106SOL    HW126657   2.749   0.277   7.850
 5106SOL    HW226658   2.896   0.234   7.909
 5107SOL     OW26659   3.089   1.570   8.241
 5107SOL    HW126660   3.110   1.644   8.176
 5107SOL    HW226661   3.157   1.570   8.314
 5108SOL     OW26662   2.321   1.152   8.189
 5108SOL    HW126663   2.250   1.125   8.254
 5108SOL    HW226664   2.295   1.124   8.096
 5109SOL     OW26665   3.133   1.797   8.039
 5109SOL    HW126666   3.177   1.861   7.975
 5109SOL    HW226667   3.083   1.849   8.109
 5110SOL     OW26668   2.894   0.549   7.464
 5110SOL    HW126669   2.853   0.631   7.425
 5110SOL    HW226670   2.958   0.575   7.537
 5111SOL     OW26671   1.940   0.556   8.834
 5111SOL    HW126672   2.032   0.555   8.793
 5111SOL    HW226673   1.934   0.630   8.901
 5112SOL     OW26674   2.423   0.222   8.595
 5112SOL    HW126675   2.461   0.138   8.632
 5112SOL    HW226676   2.335   0.241   8.639
 5113SOL     OW26677   2.728   0.454   8.090
 5113SOL    HW126678   2.696   0.526   8.028
 5113SOL    HW226679   2.752   0.373   8.037
 5114SOL     OW26680   2.879   0.039   8.201
 5114SOL    HW126681   2.807   0.044   8.132
 5114SOL    HW226682   2.855  -0.030   8.270
 5115SOL     OW26683   3.291   1.173   8.315
 5115SOL    HW126684   3.236   1.089   8.308
 5115SOL    HW226685   3.317   1.202   8.223
 5116SOL     OW26686   3.328   0.590   8.440
 5116SOL    HW126687   3.298   0.495   8.447
 5116SOL    HW226688   3.401   0.606   8.506
 5117SOL     OW26689   3.719   0.833   7.825
 5117SOL    HW126690   3.761   0.769   7.889
 5117SOL    HW226691   3.681   0.782   7.747
 5118SOL     OW26692   2.350   1.385   7.622
 5118SOL    HW126693   2.263   1.370   7.669
 5118SOL    HW226694   2.333   1.411   7.527
 5119SOL     OW26695   3.526   1.280   8.105
 5119SOL    HW126696   3.625   1.288   8.119
 5119SOL    HW226697   3.481   1.364   8.136
 5120SOL     OW26698   3.252   0.575   7.526
 5120SOL    HW126699   3.198   0.554   7.607
 5120SOL    HW226700   3.343   0.534   7.535
 5121SOL     OW26701   2.389   0.256   7.776
 5121SOL    HW126702   2.416   0.197   7.701
 5121SOL    HW226703   2.389   0.351   7.745
 5122SOL     OW26704   3.616   1.223   9.036
 5122SOL    HW126705   3.707   1.184   9.023
 5122SOL    HW226706   3.624   1.319   9.060
 5123SOL     OW26707   2.926   1.347   8.788
 5123SOL    HW126708   2.846   1.324   8.843
 5123SOL    HW226709   3.009   1.321   8.837
 5124SOL     OW26710   3.454   1.629   9.073
 5124SOL    HW126711   3.481   1.663   8.983
 5124SOL    HW226712   3.533   1.591   9.119
 5125SOL     OW26713   2.973   1.195   8.548
 5125SOL    HW126714   2.933   1.239   8.629
 5125SOL    HW226715   2.932   1.232   8.465
 5126SOL     OW26716   3.500   1.099   8.527
 5126SOL    HW126717   3.505   1.180   8.586
 5126SOL    HW226718   3.414   1.101   8.476
 5127SOL     OW26719   2.777   0.089   8.850
 5127SOL    HW126720   2.802   0.069   8.755
 5127SOL    HW226721   2.849   0.145   8.892
 5128SOL     OW26722   2.567   1.050   7.816
 5128SOL    HW126723   2.553   1.057   7.915
 5128SOL    HW226724   2.651   0.999   7.798
 5129SOL     OW26725   2.272   0.813   8.699
 5129SOL    HW126726   2.358   0.825   8.749
 5129SOL    HW226727   2.230   0.726   8.726
 5130SOL     OW26728   3.136   0.386   8.710
 5130SOL    HW126729   3.157   0.460   8.774
 5130SOL    HW226730   3.047   0.403   8.667
 5131SOL     OW26731   1.926   1.564   8.779
 5131SOL    HW126732   1.880   1.646   8.745
 5131SOL    HW226733   2.024   1.583   8.788
 5132SOL     OW26734   2.229   1.100   7.949
 5132SOL    HW126735   2.222   1.183   7.893
 5132SOL    HW226736   2.233   1.020   7.889
 5133SOL     OW26737   2.428   0.537   8.313
 5133SOL    HW126738   2.440   0.603   8.239
 5133SOL    HW226739   2.474   0.571   8.396
 5134SOL     OW26740   3.114   1.348   7.836
 5134SOL    HW126741   3.164   1.425   7.876
 5134SOL    HW226742   3.019   1.350   7.868
 5135SOL     OW26743   3.134   1.445   8.590
 5135SOL    HW126744   3.181   1.458   8.677
 5135SOL    HW226745   3.068   1.371   8.599
 5136SOL     OW26746   3.444   0.639   7.920
 5136SOL    HW126747   3.413   0.700   7.993
 5136SOL    HW226748   3.494   0.691   7.851
 5137SOL     OW26749   2.216   1.510   8.777
 5137SOL    HW126750   2.195   1.466   8.690
 5137SOL    HW226751   2.313   1.536   8.780
 5138SOL     OW26752   3.449   0.779   9.118
 5138SOL    HW126753   3.357   0.817   9.113
 5138SOL    HW226754   3.509   0.826   9.053
 5139SOL     OW26755   2.435   0.870   8.477
 5139SOL    HW126756   2.479   0.959   8.468
 5139SOL    HW226757   2.372   0.870   8.554
 5140SOL     OW26758   3.222   0.862   8.493
 5140SOL    HW126759   3.147   0.862   8.427
 5140SOL    HW226760   3.259   0.770   8.502
 5141SOL     OW26761   3.071   0.525   7.723
 5141SOL    HW126762   3.084   0.441   7.777
 5141SOL    HW226763   3.042   0.599   7.783
 5142SOL     OW26764   2.169   0.213   8.679
 5142SOL    HW126765   2.146   0.250   8.769
 5142SOL    HW226766   2.139   0.118   8.673
 5143SOL     OW26767   1.899   1.310   8.730
 5143SOL    HW126768   1.952   1.261   8.798
 5143SOL    HW226769   1.921   1.408   8.735
 5144SOL     OW26770   2.594   0.634   8.512
 5144SOL    HW126771   2.653   0.608   8.436
 5144SOL    HW226772   2.566   0.730   8.501
 5145SOL     OW26773   3.590   0.935   9.302
 5145SOL    HW126774   3.544   0.928   9.213
 5145SOL    HW226775   3.528   0.979   9.368
 5146SOL     OW26776   2.169   0.063   8.066
 5146SOL    HW126777   2.158   0.157   8.099
 5146SOL    HW226778   2.164   0.000   8.143
 5147SOL     OW26779   3.484   0.367   7.822
 5147SOL    HW126780   3.486   0.291   7.886
 5147SOL    HW226781   3.436   0.444   7.862
 5148SOL     OW26782   2.885   0.766   8.414
 5148SOL    HW126783   2.900   0.787   8.510
 5148SOL    HW226784   2.855   0.671   8.405
 5149SOL     OW26785   2.842   1.573   9.148
 5149SOL    HW126786   2.822   1.617   9.060
 5149SOL    HW226787   2.881   1.482   9.132
 5150SOL     OW26788   3.721   1.518   9.053
 5150SOL    HW126789   3.735   1.545   8.958
 5150SOL    HW226790   3.804   1.540   9.106
 5151SOL     OW26791   3.402   0.274   7.573
 5151SOL    HW126792   3.341   0.199   7.596
 5151SOL    HW226793   3.424   0.326   7.656
 5152SOL     OW26794   3.165   0.838   7.490
 5152SOL    HW126795   3.199   0.745   7.505
 5152SOL    HW226796   3.183   0.865   7.395
 5153SOL     OW26797   2.930   1.333   8.297
 5153SOL    HW126798   2.937   1.249   8.242
 5153SOL    HW226799   2.992   1.402   8.261
 5154SOL     OW26800   2.181   0.810   8.397
 5154SOL    HW126801   2.274   0.846   8.402
 5154SOL    HW226802   2.175   0.725   8.449
 5155SOL     OW26803   2.201   0.509   8.454
 5155SOL    HW126804   2.149   0.426   8.437
 5155SOL    HW226805   2.278   0.514   8.390
 5156SOL     OW26806   3.000   0.380   9.126
 5156SOL    HW126807   2.955   0.443   9.190
 5156SOL    HW226808   3.093   0.411   9.109
 5157SOL     OW26809   3.022   0.207   8.925
 5157SOL    HW126810   3.022   0.271   9.002
 5157SOL    HW226811   3.050   0.255   8.842
 5158SOL     OW26812   1.870   1.326   7.648
 5158SOL    HW126813   1.777   1.347   7.617
 5158SOL    HW226814   1.880   1.227   7.661
 5159SOL     OW26815   1.950   1.801   8.375
 5159SOL    HW126816   1.908   1.715   8.348
 5159SOL    HW226817   2.044   1.804   8.341
 5160SOL     OW26818   2.366   1.568   8.358
 5160SOL    HW126819   2.432   1.642   8.367
 5160SOL    HW226820   2.410   1.489   8.316
 5161SOL     OW26821   2.864   0.796   8.686
 5161SOL    HW126822   2.905   0.764   8.772
 5161SOL    HW226823   2.768   0.769   8.683
 5162SOL     OW26824   1.902   0.544   8.562
 5162SOL    HW126825   1.987   0.511   8.521
 5162SOL    HW226826   1.915   0.559   8.660
 5163SOL     OW26827   3.231   0.950   9.108
 5163SOL    HW126828   3.270   1.039   9.128
 5163SOL    HW226829   3.241   0.930   9.011
 5164SOL     OW26830   2.677   0.572   7.773
 5164SOL    HW126831   2.684   0.483   7.727
 5164SOL    HW226832   2.583   0.606   7.765
 5165SOL     OW26833   3.519   0.604   8.654
 5165SOL    HW126834   3.481   0.535   8.716
 5165SOL    HW226835   3.601   0.568   8.610
 5166SOL     OW26836   2.533   0.464   8.717
 5166SOL    HW126837   2.499   0.375   8.687
 5166SOL    HW226838   2.559   0.518   8.637
 5167SOL     OW26839   2.792   1.678   8.913
 5167SOL    HW126840   2.768   1.660   8.818
 5167SOL    HW226841   2.822   1.772   8.923
 5168SOL     OW26842   2.335   0.500   7.639
 5168SOL    HW126843   2.396   0.580   7.643
 5168SOL    HW226844   2.240   0.531   7.646
 5169SOL     OW26845   2.021   1.137   8.914
 5169SOL    HW126846   2.043   1.076   8.990
 5169SOL    HW226847   2.031   1.088   8.828
 5170SOL     OW26848   3.209   1.059   8.682
 5170SOL    HW126849   3.233   0.996   8.608
 5170SOL    HW226850   3.119   1.099   8.664
 5171SOL     OW26851   3.164   0.855   7.757
 5171SOL    HW126852   3.078   0.824   7.799
 5171SOL    HW226853   3.160   0.841   7.658
 5172SOL     OW26854   3.621   1.747   8.602
 5172SOL    HW126855   3.682   1.777   8.529
 5172SOL    HW226856   3.583   1.658   8.580
 5173SOL     OW26857   3.114   1.731   8.576
 5173SOL    HW126858   3.198   1.736   8.522
 5173SOL    HW226859   3.091   1.635   8.594
 5174SOL     OW26860   1.945   1.258   8.470
 5174SOL    HW126861   1.940   1.257   8.570
 5174SOL    HW226862   1.862   1.217   8.432
 5175SOL     OW26863   2.550   1.662   9.164
 5175SOL    HW126864   2.494   1.743   9.173
 5175SOL    HW226865   2.602   1.666   9.078
 5176SOL     OW26866   3.588   0.135   7.971
 5176SOL    HW126867   3.661   0.118   7.904
 5176SOL    HW226868   3.557   0.048   8.009
 5177SOL     OW26869   3.250   1.573   7.925
 5177SOL    HW126870   3.317   1.585   7.851
 5177SOL    HW226871   3.210   1.662   7.948
 5178SOL     OW26872   3.142   0.927   8.120
 5178SOL    HW126873   3.202   0.846   8.122
 5178SOL    HW226874   3.182   0.996   8.060
 5179SOL     OW26875   2.692   1.273   8.870
 5179SOL    HW126876   2.687   1.306   8.965
 5179SOL    HW226877   2.606   1.292   8.824
 5180SOL     OW26878   2.534   1.616   7.602
 5180SOL    HW126879   2.543   1.626   7.503
 5180SOL    HW226880   2.494   1.527   7.623
 5181SOL     OW26881   3.512   1.720   8.842
 5181SOL    HW126882   3.565   1.730   8.758
 5181SOL    HW226883   3.485   1.810   8.876
 5182SOL     OW26884   3.703   0.175   8.411
 5182SOL    HW126885   3.742   0.090   8.375
 5182SOL    HW226886   3.605   0.177   8.392
 5183SOL     OW26887   2.125   0.326   8.168
 5183SOL    HW126888   2.046   0.377   8.134
 5183SOL    HW226889   2.116   0.311   8.266
 5184SOL     OW26890   3.056   1.612   7.479
 5184SOL    HW126891   3.062   1.519   7.516
 5184SOL    HW226892   2.997   1.612   7.399
 5185SOL     OW26893   2.684   1.002   8.820
 5185SOL    HW126894   2.724   1.001   8.728
 5185SOL    HW226895   2.694   1.094   8.860
 5186SOL     OW26896   2.778   0.910   7.739
 5186SOL    HW126897   2.841   0.948   7.671
 5186SOL    HW226898   2.818   0.827   7.778
 5187SOL     OW26899   3.366   1.607   7.492
 5187SOL    HW126900   3.274   1.644   7.499
 5187SOL    HW226901   3.404   1.627   7.402
 5188SOL     OW26902   2.234   1.288   8.938
 5188SOL    HW126903   2.221   1.381   8.904
 5188SOL    HW226904   2.150   1.236   8.925
 5189SOL     OW26905   3.476   1.292   8.737
 5189SOL    HW126906   3.536   1.295   8.817
 5189SOL    HW226907   3.401   1.356   8.750
 5190SOL     OW26908   2.901   1.098   8.144
 5190SOL    HW126909   2.831   1.051   8.198
 5190SOL    HW226910   2.960   1.030   8.101
 5191SOL     OW26911   2.876   0.236   8.419
 5191SOL    HW126912   2.868   0.200   8.326
 5191SOL    HW226913   2.874   0.160   8.484
 5192SOL     OW26914   2.452   1.487   7.939
 5192SOL    HW126915   2.494   1.429   7.869
 5192SOL    HW226916   2.408   1.566   7.895
 5193SOL     OW26917   3.571   0.385   8.829
 5193SOL    HW126918   3.644   0.454   8.833
 5193SOL    HW226919   3.599   0.310   8.770
 5194SOL     OW26920   2.117   1.348   7.738
 5194SOL    HW126921   2.021   1.349   7.711
 5194SOL    HW226922   2.129   1.401   7.822
 5195SOL     OW26923   2.534   0.203   8.937
 5195SOL    HW126924   2.624   0.187   8.897
 5195SOL    HW226925   2.542   0.208   9.036
 5196SOL     OW26926   1.937   0.345   7.481
 5196SOL    HW126927   1.845   0.317   7.452
 5196SOL    HW226928   1.968   0.422   7.425
 5197SOL     OW26929   3.302   0.856   8.846
 5197SOL    HW126930   3.245   0.908   8.783
 5197SOL    HW226931   3.398   0.868   8.822
 5198SOL     OW26932   1.934   0.166   7.766
 5198SOL    HW126933   1.917   0.249   7.712
 5198SOL    HW226934   2.024   0.129   7.744
 5199SOL     OW26935   3.045   1.335   7.567
 5199SOL    HW126936   2.946   1.324   7.569
 5199SOL    HW226937   3.079   1.350   7.660
 5200SOL     OW26938   2.475   0.842   8.879
 5200SOL    HW126939   2.531   0.923   8.862
 5200SOL    HW226940   2.534   0.762   8.882
 5201SOL     OW26941   3.355   1.767   8.407
 5201SOL    HW126942   3.388   1.831   8.338
 5201SOL    HW226943   3.421   1.761   8.482
 5202SOL     OW26944   3.312   1.220   9.081
 5202SOL    HW126945   3.303   1.210   9.180
 5202SOL    HW226946   3.408   1.213   9.055
 5203SOL     OW26947   2.252   1.741   9.008
 5203SOL    HW126948   2.161   1.782   9.006
 5203SOL    HW226949   2.245   1.647   9.040
 5204SOL     OW26950   3.536   0.883   8.702
 5204SOL    HW126951   3.509   0.794   8.665
 5204SOL    HW226952   3.537   0.951   8.629
 5205SOL     OW26953   3.087   0.325   7.897
 5205SOL    HW126954   3.152   0.251   7.886
 5205SOL    HW226955   3.107   0.375   7.981
 5206SOL     OW26956   2.456   0.745   8.100
 5206SOL    HW126957   2.506   0.830   8.081
 5206SOL    HW226958   2.368   0.747   8.052
 5207SOL     OW26959   3.639   0.342   9.090
 5207SOL    HW126960   3.622   0.373   8.996
 5207SOL    HW226961   3.555   0.305   9.128
 5208SOL     OW26962   3.592   0.934   8.965
 5208SOL    HW126963   3.630   1.025   8.980
 5208SOL    HW226964   3.584   0.917   8.866
 5209SOL     OW26965   2.721   1.374   7.464
 5209SOL    HW126966   2.675   1.389   7.552
 5209SOL    HW226967   2.765   1.459   7.434
 5210SOL     OW26968   2.523   1.790   8.401
 5210SOL    HW126969   2.477   1.878   8.388
 5210SOL    HW226970   2.622   1.802   8.394
 5211SOL     OW26971   2.721   0.956   8.309
 5211SOL    HW126972   2.775   0.887   8.357
 5211SOL    HW226973   2.689   1.025   8.375
 5212SOL     OW26974   2.945   0.984   7.535
 5212SOL    HW126975   2.922   1.037   7.453
 5212SOL    HW226976   3.026   0.928   7.516
 5213SOL     OW26977   3.723   1.569   8.299
 5213SOL    HW126978   3.652   1.557   8.229
 5213SOL    HW226979   3.724   1.490   8.359
 5214SOL     OW26980   1.941   1.240   8.101
 5214SOL    HW126981   1.940   1.193   8.189
 5214SOL    HW226982   2.023   1.212   8.050
 5215SOL     OW26983   2.534   1.391   9.072
 5215SOL    HW126984   2.456   1.341   9.110
 5215SOL    HW226985   2.531   1.486   9.103
 5216SOL     OW26986   3.686   0.192   8.675
 5216SOL    HW126987   3.682   0.102   8.719
 5216SOL    HW226988   3.689   0.181   8.576
 5217SOL     OW26989   2.290   0.424   7.968
 5217SOL    HW126990   2.320   0.352   7.906
 5217SOL    HW226991   2.251   0.384   8.051
 5218SOL     OW26992   3.567   1.487   8.552
 5218SOL    HW126993   3.474   1.462   8.525
 5218SOL    HW226994   3.593   1.437   8.634
 5219SOL     OW26995   2.179   0.547   8.728
 5219SOL    HW126996   2.217   0.488   8.800
 5219SOL    HW226997   2.219   0.521   8.640
 5220SOL     OW26998   2.674   1.586   8.135
 5220SOL    HW126999   2.706   1.596   8.041
 5220SOL    HW227000   2.595   1.524   8.137
 5221SOL     OW27001   3.286   0.214   8.560
 5221SOL    HW127002   3.338   0.149   8.615
 5221SOL    HW227003   3.237   0.277   8.621
 5222SOL     OW27004   2.863   0.034   8.602
 5222SOL    HW127005   2.800  -0.038   8.571
 5222SOL    HW227006   2.956  -0.002   8.602
 5223SOL     OW27007   2.632   1.330   7.749
 5223SOL    HW127008   2.586   1.243   7.766
 5223SOL    HW227009   2.723   1.327   7.790
 5224SOL     OW27010   2.480   1.567   8.732
 5224SOL    HW127011   2.475   1.649   8.789
 5224SOL    HW227012   2.569   1.564   8.687
 5225SOL     OW27013   3.214   0.052   7.616
 5225SOL    HW127014   3.249   0.011   7.532
 5225SOL    HW227015   3.124   0.014   7.636
 5226SOL     OW27016   3.162   0.453   8.139
 5226SOL    HW127017   3.103   0.533   8.143
 5226SOL    HW227018   3.177   0.418   8.232
 5227SOL     OW27019   3.455   0.221   8.330
 5227SOL    HW127020   3.371   0.220   8.384
 5227SOL    HW227021   3.457   0.304   8.274
 5228SOL     OW27022   1.901   1.077   7.748
 5228SOL    HW127023   2.000   1.066   7.739
 5228SOL    HW227024   1.861   0.991   7.780
 5229SOL     OW27025   2.737   1.646   7.785
 5229SOL    HW127026   2.660   1.611   7.731
 5229SOL    HW227027   2.705   1.717   7.847
 5230SOL     OW27028   2.087   0.275  10.306
 5230SOL    HW127029   2.122   0.258  10.398
 5230SOL    HW227030   1.999   0.230  10.294
 5231SOL     OW27031   1.881   0.368   9.957
 5231SOL    HW127032   1.799   0.411   9.996
 5231SOL    HW227033   1.853   0.295   9.894
 5232SOL     OW27034   3.417   1.511  10.013
 5232SOL    HW127035   3.360   1.495  10.094
 5232SOL    HW227036   3.358   1.521   9.933
 5233SOL     OW27037   3.617   0.607   9.541
 5233SOL    HW127038   3.605   0.594   9.442
 5233SOL    HW227039   3.587   0.526   9.590
 5234SOL     OW27040   2.712   0.798  11.133
 5234SOL    HW127041   2.708   0.874  11.198
 5234SOL    HW227042   2.734   0.834  11.042
 5235SOL     OW27043   2.548   1.161  11.113
 5235SOL    HW127044   2.608   1.240  11.127
 5235SOL    HW227045   2.462   1.192  11.072
 5236SOL     OW27046   3.704   1.767   9.669
 5236SOL    HW127047   3.758   1.738   9.749
 5236SOL    HW227048   3.734   1.857   9.640
 5237SOL     OW27049   3.503   1.108   9.742
 5237SOL    HW127050   3.589   1.110   9.690
 5237SOL    HW227051   3.517   1.155   9.830
 5238SOL     OW27052   2.475   1.365  10.036
 5238SOL    HW127053   2.426   1.278  10.045
 5238SOL    HW227054   2.452   1.408   9.949
 5239SOL     OW27055   3.387   0.999   9.500
 5239SOL    HW127056   3.324   0.923   9.513
 5239SOL    HW227057   3.435   1.017   9.586
 5240SOL     OW27058   3.049   1.792  10.926
 5240SOL    HW127059   3.073   1.852  10.850
 5240SOL    HW227060   3.056   1.697  10.896
 5241SOL     OW27061   3.328   1.417  10.263
 5241SOL    HW127062   3.269   1.423  10.343
 5241SOL    HW227063   3.313   1.329  10.217
 5242SOL     OW27064   3.529   1.714   9.882
 5242SOL    HW127065   3.488   1.691   9.794
 5242SOL    HW227066   3.511   1.640   9.947
 5243SOL     OW27067   3.438   1.662   9.617
 5243SOL    HW127068   3.527   1.708   9.620
 5243SOL    HW227069   3.417   1.638   9.522
 5244SOL     OW27070   2.669   0.605  10.775
 5244SOL    HW127071   2.622   0.602  10.864
 5244SOL    HW227072   2.618   0.550  10.709
 5245SOL     OW27073   2.853   0.410  10.552
 5245SOL    HW127074   2.776   0.444  10.606
 5245SOL    HW227075   2.819   0.359  10.473
 5246SOL     OW27076   2.727   0.348   9.505
 5246SOL    HW127077   2.786   0.411   9.456
 5246SOL    HW227078   2.746   0.254   9.476
 5247SOL     OW27079   3.581   0.585  11.141
 5247SOL    HW127080   3.555   0.674  11.105
 5247SOL    HW227081   3.579   0.517  11.068
 5248SOL     OW27082   2.412   0.196  10.195
 5248SOL    HW127083   2.407   0.191  10.295
 5248SOL    HW227084   2.414   0.292  10.166
 5249SOL     OW27085   3.657   1.066  10.183
 5249SOL    HW127086   3.595   1.051  10.107
 5249SOL    HW227087   3.605   1.077  10.268
 5250SOL     OW27088   2.323   1.266  11.037
 5250SOL    HW127089   2.273   1.267  10.951
 5250SOL    HW227090   2.260   1.248  11.113
 5251SOL     OW27091   2.973   1.776   9.547
 5251SOL    HW127092   2.913   1.714   9.597
 5251SOL    HW227093   3.004   1.732   9.462
 5252SOL     OW27094   3.494   1.377   9.391
 5252SOL    HW127095   3.462   1.471   9.381
 5252SOL    HW227096   3.418   1.314   9.379
 5253SOL     OW27097   2.802   1.698  10.214
 5253SOL    HW127098   2.882   1.641  10.235
 5253SOL    HW227099   2.753   1.658  10.137
 5254SOL     OW27100   2.784   0.503  10.209
 5254SOL    HW127101   2.759   0.494  10.113
 5254SOL    HW227102   2.832   0.421  10.240
 5255SOL     OW27103   2.401   0.064   9.822
 5255SOL    HW127104   2.320   0.065   9.880
 5255SOL    HW227105   2.404   0.147   9.767
 5256SOL     OW27106   3.296   1.188   9.351
 5256SOL    HW127107   3.328   1.112   9.408
 5256SOL    HW227108   3.204   1.215   9.381
 5257SOL     OW27109   3.089   1.570  10.103
 5257SOL    HW127110   3.110   1.644  10.038
 5257SOL    HW227111   3.157   1.570  10.176
 5258SOL     OW27112   2.321   1.152  10.051
 5258SOL    HW127113   2.250   1.125  10.116
 5258SOL    HW227114   2.295   1.124   9.958
 5259SOL     OW27115   3.133   1.797   9.901
 5259SOL    HW127116   3.177   1.861   9.837
 5259SOL    HW227117   3.083   1.849   9.971
 5260SOL     OW27118   2.894   0.549   9.326
 5260SOL    HW127119   2.853   0.631   9.287
 5260SOL    HW227120   2.958   0.575   9.399
 5261SOL     OW27121   2.423   0.222  10.457
 5261SOL    HW127122   2.461   0.138  10.494
 5261SOL    HW227123   2.335   0.241  10.501
 5262SOL     OW27124   3.291   1.173  10.177
 5262SOL    HW127125   3.236   1.089  10.170
 5262SOL    HW227126   3.317   1.202  10.085
 5263SOL     OW27127   3.328   0.590  10.302
 5263SOL    HW127128   3.298   0.495  10.309
 5263SOL    HW227129   3.401   0.606  10.368
 5264SOL     OW27130   3.719   0.833   9.687
 5264SOL    HW127131   3.761   0.769   9.751
 5264SOL    HW227132   3.681   0.782   9.609
 5265SOL     OW27133   2.350   1.385   9.484
 5265SOL    HW127134   2.263   1.370   9.531
 5265SOL    HW227135   2.333   1.411   9.389
 5266SOL     OW27136   3.526   1.280   9.967
 5266SOL    HW127137   3.625   1.288   9.981
 5266SOL    HW227138   3.481   1.364   9.998
 5267SOL     OW27139   3.252   0.575   9.388
 5267SOL    HW127140   3.198   0.554   9.469
 5267SOL    HW227141   3.343   0.534   9.397
 5268SOL     OW27142   3.500   1.099  10.389
 5268SOL    HW127143   3.505   1.180  10.448
 5268SOL    HW227144   3.414   1.101  10.338
 5269SOL     OW27145   2.272   0.813  10.561
 5269SOL    HW127146   2.358   0.825  10.611
 5269SOL    HW227147   2.230   0.726  10.588
 5270SOL     OW27148   2.229   1.100   9.811
 5270SOL    HW127149   2.222   1.183   9.755
 5270SOL    HW227150   2.233   1.020   9.751
 5271SOL     OW27151   2.428   0.537  10.175
 5271SOL    HW127152   2.440   0.603  10.101
 5271SOL    HW227153   2.474   0.571  10.258
 5272SOL     OW27154   3.134   1.445  10.452
 5272SOL    HW127155   3.181   1.458  10.539
 5272SOL    HW227156   3.068   1.371  10.461
 5273SOL     OW27157   2.264   0.751  10.908
 5273SOL    HW127158   2.332   0.806  10.861
 5273SOL    HW227159   2.304   0.663  10.935
 5274SOL     OW27160   3.449   0.779  10.980
 5274SOL    HW127161   3.357   0.817  10.975
 5274SOL    HW227162   3.509   0.826  10.915
 5275SOL     OW27163   2.435   0.870  10.339
 5275SOL    HW127164   2.479   0.959  10.330
 5275SOL    HW227165   2.372   0.870  10.416
 5276SOL     OW27166   3.071   0.525   9.585
 5276SOL    HW127167   3.084   0.441   9.639
 5276SOL    HW227168   3.042   0.599   9.645
 5277SOL     OW27169   2.594   0.634  10.374
 5277SOL    HW127170   2.653   0.608  10.298
 5277SOL    HW227171   2.566   0.730  10.363
 5278SOL     OW27172   3.484   0.367   9.684
 5278SOL    HW127173   3.486   0.291   9.748
 5278SOL    HW227174   3.436   0.444   9.724
 5279SOL     OW27175   2.885   0.766  10.276
 5279SOL    HW127176   2.900   0.787  10.372
 5279SOL    HW227177   2.855   0.671  10.267
 5280SOL     OW27178   2.212   0.898  11.114
 5280SOL    HW127179   2.288   0.942  11.162
 5280SOL    HW227180   2.247   0.851  11.032
 5281SOL     OW27181   3.402   0.274   9.435
 5281SOL    HW127182   3.341   0.199   9.458
 5281SOL    HW227183   3.424   0.326   9.518
 5282SOL     OW27184   3.165   0.838   9.352
 5282SOL    HW127185   3.199   0.745   9.367
 5282SOL    HW227186   3.183   0.865   9.257
 5283SOL     OW27187   2.930   1.333  10.159
 5283SOL    HW127188   2.937   1.249  10.104
 5283SOL    HW227189   2.992   1.402  10.123
 5284SOL     OW27190   2.201   0.509  10.316
 5284SOL    HW127191   2.149   0.426  10.299
 5284SOL    HW227192   2.278   0.514  10.252
 5285SOL     OW27193   3.519   0.604  10.516
 5285SOL    HW127194   3.481   0.535  10.578
 5285SOL    HW227195   3.601   0.568  10.472
 5286SOL     OW27196   3.588   0.135   9.833
 5286SOL    HW127197   3.661   0.118   9.766
 5286SOL    HW227198   3.557   0.048   9.871
 5287SOL     OW27199   3.250   1.573   9.787
 5287SOL    HW127200   3.317   1.585   9.713
 5287SOL    HW227201   3.210   1.662   9.810
 5288SOL     OW27202   1.992   1.794  11.161
 5288SOL    HW127203   1.951   1.720  11.214
 5288SOL    HW227204   2.056   1.845  11.219
 5289SOL     OW27205   2.692   1.273  10.732
 5289SOL    HW127206   2.687   1.306  10.827
 5289SOL    HW227207   2.606   1.292  10.686
 5290SOL     OW27208   2.534   1.616   9.464
 5290SOL    HW127209   2.543   1.626   9.365
 5290SOL    HW227210   2.494   1.527   9.485
 5291SOL     OW27211   3.056   1.612   9.341
 5291SOL    HW127212   3.062   1.519   9.378
 5291SOL    HW227213   2.997   1.612   9.261
 5292SOL     OW27214   2.684   1.002  10.682
 5292SOL    HW127215   2.724   1.001  10.590
 5292SOL    HW227216   2.694   1.094  10.722
 5293SOL     OW27217   3.366   1.607   9.354
 5293SOL    HW127218   3.274   1.644   9.361
 5293SOL    HW227219   3.404   1.627   9.264
 5294SOL     OW27220   3.476   1.292  10.599
 5294SOL    HW127221   3.536   1.295  10.679
 5294SOL    HW227222   3.401   1.356  10.612
 5295SOL     OW27223   2.876   0.236  10.281
 5295SOL    HW127224   2.868   0.200  10.188
 5295SOL    HW227225   2.874   0.160  10.346
 5296SOL     OW27226   3.571   0.385  10.691
 5296SOL    HW127227   3.644   0.454  10.695
 5296SOL    HW227228   3.599   0.310  10.632
 5297SOL     OW27229   1.967   1.013  11.036
 5297SOL    HW127230   1.890   0.980  11.090
 5297SOL    HW227231   2.052   0.983  11.078
 5298SOL     OW27232   3.302   0.856  10.708
 5298SOL    HW127233   3.245   0.908  10.645
 5298SOL    HW227234   3.398   0.868  10.684
 5299SOL     OW27235   3.045   1.335   9.429
 5299SOL    HW127236   2.946   1.324   9.431
 5299SOL    HW227237   3.079   1.350   9.522
 5300SOL     OW27238   2.475   0.842  10.741
 5300SOL    HW127239   2.531   0.923  10.724
 5300SOL    HW227240   2.534   0.762  10.744
 5301SOL     OW27241   3.355   1.767  10.269
 5301SOL    HW127242   3.388   1.831  10.200
 5301SOL    HW227243   3.421   1.761  10.344
 5302SOL     OW27244   3.536   0.883  10.564
 5302SOL    HW127245   3.509   0.794  10.527
 5302SOL    HW227246   3.537   0.951  10.491
 5303SOL     OW27247   2.456   0.745   9.962
 5303SOL    HW127248   2.506   0.830   9.943
 5303SOL    HW227249   2.368   0.747   9.914
 5304SOL     OW27250   3.639   0.342  10.952
 5304SOL    HW127251   3.622   0.373  10.858
 5304SOL    HW227252   3.555   0.305  10.990
 5305SOL     OW27253   3.592   0.934  10.827
 5305SOL    HW127254   3.630   1.025  10.842
 5305SOL    HW227255   3.584   0.917  10.728
 5306SOL     OW27256   2.721   1.374   9.326
 5306SOL    HW127257   2.675   1.389   9.414
 5306SOL    HW227258   2.765   1.459   9.296
 5307SOL     OW27259   2.721   0.956  10.171
 5307SOL    HW127260   2.775   0.887  10.219
 5307SOL    HW227261   2.689   1.025  10.237
 5308SOL     OW27262   3.723   1.569  10.161
 5308SOL    HW127263   3.652   1.557  10.091
 5308SOL    HW227264   3.724   1.490  10.221
 5309SOL     OW27265   2.290   0.424   9.830
 5309SOL    HW127266   2.320   0.352   9.768
 5309SOL    HW227267   2.251   0.384   9.913
 5310SOL     OW27268   3.567   1.487  10.414
 5310SOL    HW127269   3.474   1.462  10.387
 5310SOL    HW227270   3.593   1.437  10.496
 5311SOL     OW27271   3.286   0.214  10.422
 5311SOL    HW127272   3.338   0.149  10.477
 5311SOL    HW227273   3.237   0.277  10.483
 5312SOL     OW27274   2.863   0.034  10.464
 5312SOL    HW127275   2.800  -0.038  10.433
 5312SOL    HW227276   2.956  -0.002  10.464
 5313SOL     OW27277   2.480   1.567  10.594
 5313SOL    HW127278   2.475   1.649  10.651
 5313SOL    HW227279   2.569   1.564  10.549
 5314SOL     OW27280   2.431   1.275  12.337
 5314SOL    HW127281   2.338   1.268  12.300
 5314SOL    HW227282   2.442   1.364  12.381
 5315SOL     OW27283   2.197   1.435  12.233
 5315SOL    HW127284   2.119   1.404  12.180
 5315SOL    HW227285   2.255   1.493  12.176
 5316SOL     OW27286   2.093   1.713  11.655
 5316SOL    HW127287   2.127   1.790  11.709
 5316SOL    HW227288   2.137   1.713  11.565
 5317SOL     OW27289   2.482   1.786  12.611
 5317SOL    HW127290   2.390   1.769  12.646
 5317SOL    HW227291   2.510   1.878  12.637
 5318SOL     OW27292   3.456   0.114  12.652
 5318SOL    HW127293   3.438   0.181  12.580
 5318SOL    HW227294   3.453   0.160  12.741
 5319SOL     OW27295   2.475   1.365  11.898
 5319SOL    HW127296   2.426   1.278  11.907
 5319SOL    HW227297   2.452   1.408  11.811
 5320SOL     OW27298   2.671   0.004  11.674
 5320SOL    HW127299   2.711   0.095  11.665
 5320SOL    HW227300   2.571   0.012  11.680
 5321SOL     OW27301   3.049   1.792  12.788
 5321SOL    HW127302   3.073   1.852  12.712
 5321SOL    HW227303   3.056   1.697  12.758
 5322SOL     OW27304   2.179   0.251  12.973
 5322SOL    HW127305   2.250   0.322  12.979
 5322SOL    HW227306   2.091   0.290  13.001
 5323SOL     OW27307   3.328   1.417  12.125
 5323SOL    HW127308   3.269   1.423  12.205
 5323SOL    HW227309   3.313   1.329  12.079
 5324SOL     OW27310   3.143   0.345  12.116
 5324SOL    HW127311   3.057   0.295  12.103
 5324SOL    HW227312   3.205   0.291  12.172
 5325SOL     OW27313   3.438   1.662  11.479
 5325SOL    HW127314   3.527   1.708  11.482
 5325SOL    HW227315   3.417   1.638  11.384
 5326SOL     OW27316   2.835   0.890  12.744
 5326SOL    HW127317   2.881   0.806  12.715
 5326SOL    HW227318   2.779   0.924  12.669
 5327SOL     OW27319   3.581   0.585  13.003
 5327SOL    HW127320   3.555   0.674  12.967
 5327SOL    HW227321   3.579   0.517  12.930
 5328SOL     OW27322   3.089   1.550  12.678
 5328SOL    HW127323   3.095   1.473  12.742
 5328SOL    HW227324   3.037   1.524  12.598
 5329SOL     OW27325   2.183   0.943  11.414
 5329SOL    HW127326   2.265   0.982  11.372
 5329SOL    HW227327   2.156   0.861  11.365
 5330SOL     OW27328   2.064   0.285  12.670
 5330SOL    HW127329   1.984   0.345  12.657
 5330SOL    HW227330   2.054   0.236  12.756
 5331SOL     OW27331   3.494   1.377  11.253
 5331SOL    HW127332   3.462   1.471  11.243
 5331SOL    HW227333   3.418   1.314  11.241
 5332SOL     OW27334   3.409   0.222  12.901
 5332SOL    HW127335   3.404   0.259  12.993
 5332SOL    HW227336   3.337   0.153  12.889
 5333SOL     OW27337   2.476   0.122  11.289
 5333SOL    HW127338   2.574   0.100  11.296
 5333SOL    HW227339   2.445   0.105  11.196
 5334SOL     OW27340   3.213   0.590  12.605
 5334SOL    HW127341   3.241   0.547  12.690
 5334SOL    HW227342   3.238   0.686  12.606
 5335SOL     OW27343   2.665   1.402  12.096
 5335SOL    HW127344   2.755   1.416  12.054
 5335SOL    HW227345   2.594   1.404  12.025
 5336SOL     OW27346   2.159   0.035  11.343
 5336SOL    HW127347   2.208   0.119  11.322
 5336SOL    HW227348   2.221  -0.030  11.388
 5337SOL     OW27349   2.938   0.683  12.636
 5337SOL    HW127350   2.858   0.622  12.639
 5337SOL    HW227351   3.019   0.630  12.612
 5338SOL     OW27352   2.879   0.039  11.925
 5338SOL    HW127353   2.807   0.044  11.856
 5338SOL    HW227354   2.855  -0.030  11.994
 5339SOL     OW27355   2.389   0.256  11.500
 5339SOL    HW127356   2.416   0.197  11.425
 5339SOL    HW227357   2.389   0.351  11.469
 5340SOL     OW27358   2.272   0.813  12.423
 5340SOL    HW127359   2.358   0.825  12.473
 5340SOL    HW227360   2.230   0.726  12.450
 5341SOL     OW27361   3.136   0.386  12.434
 5341SOL    HW127362   3.157   0.460  12.498
 5341SOL    HW227363   3.047   0.403  12.391
 5342SOL     OW27364   3.114   1.348  11.560
 5342SOL    HW127365   3.164   1.425  11.600
 5342SOL    HW227366   3.019   1.350  11.592
 5343SOL     OW27367   3.134   1.445  12.314
 5343SOL    HW127368   3.181   1.458  12.401
 5343SOL    HW227369   3.068   1.371  12.323
 5344SOL     OW27370   2.216   1.510  12.501
 5344SOL    HW127371   2.195   1.466  12.414
 5344SOL    HW227372   2.313   1.536  12.504
 5345SOL     OW27373   2.264   0.751  12.770
 5345SOL    HW127374   2.332   0.806  12.723
 5345SOL    HW227375   2.304   0.663  12.797
 5346SOL     OW27376   3.449   0.779  12.842
 5346SOL    HW127377   3.357   0.817  12.837
 5346SOL    HW227378   3.509   0.826  12.777
 5347SOL     OW27379   2.366   0.050  12.912
 5347SOL    HW127380   2.324  -0.007  12.842
 5347SOL    HW227381   2.300   0.119  12.944
 5348SOL     OW27382   3.590   0.935  13.026
 5348SOL    HW127383   3.544   0.928  12.937
 5348SOL    HW227384   3.528   0.979  13.092
 5349SOL     OW27385   2.842   1.573  12.872
 5349SOL    HW127386   2.822   1.617  12.784
 5349SOL    HW227387   2.881   1.482  12.856
 5350SOL     OW27388   2.212   0.898  12.976
 5350SOL    HW127389   2.288   0.942  13.024
 5350SOL    HW227390   2.247   0.851  12.894
 5351SOL     OW27391   3.165   0.838  11.214
 5351SOL    HW127392   3.199   0.745  11.229
 5351SOL    HW227393   3.183   0.865  11.119
 5352SOL     OW27394   3.000   0.380  12.850
 5352SOL    HW127395   2.955   0.443  12.914
 5352SOL    HW227396   3.093   0.411  12.833
 5353SOL     OW27397   3.022   0.207  12.649
 5353SOL    HW127398   3.022   0.271  12.726
 5353SOL    HW227399   3.050   0.255  12.566
 5354SOL     OW27400   2.366   1.568  12.082
 5354SOL    HW127401   2.432   1.642  12.091
 5354SOL    HW227402   2.410   1.489  12.040
 5355SOL     OW27403   2.533   0.464  12.441
 5355SOL    HW127404   2.499   0.375  12.411
 5355SOL    HW227405   2.559   0.518  12.361
 5356SOL     OW27406   2.021   1.137  12.638
 5356SOL    HW127407   2.043   1.076  12.714
 5356SOL    HW227408   2.031   1.088  12.552
 5357SOL     OW27409   2.550   1.662  12.888
 5357SOL    HW127410   2.494   1.743  12.897
 5357SOL    HW227411   2.602   1.666  12.802
 5358SOL     OW27412   3.588   0.135  11.695
 5358SOL    HW127413   3.661   0.118  11.628
 5358SOL    HW227414   3.557   0.048  11.733
 5359SOL     OW27415   3.250   1.573  11.649
 5359SOL    HW127416   3.317   1.585  11.575
 5359SOL    HW227417   3.210   1.662  11.672
 5360SOL     OW27418   3.512   1.720  12.566
 5360SOL    HW127419   3.565   1.730  12.482
 5360SOL    HW227420   3.485   1.810  12.600
 5361SOL     OW27421   3.366   1.607  11.216
 5361SOL    HW127422   3.274   1.644  11.223
 5361SOL    HW227423   3.404   1.627  11.126
 5362SOL     OW27424   2.234   1.288  12.662
 5362SOL    HW127425   2.221   1.381  12.628
 5362SOL    HW227426   2.150   1.236  12.649
 5363SOL     OW27427   3.476   1.292  12.461
 5363SOL    HW127428   3.536   1.295  12.541
 5363SOL    HW227429   3.401   1.356  12.474
 5364SOL     OW27430   1.967   1.013  12.898
 5364SOL    HW127431   1.890   0.980  12.952
 5364SOL    HW227432   2.052   0.983  12.940
 5365SOL     OW27433   1.937   0.345  11.205
 5365SOL    HW127434   1.845   0.317  11.176
 5365SOL    HW227435   1.968   0.422  11.149
 5366SOL     OW27436   3.045   1.335  11.291
 5366SOL    HW127437   2.946   1.324  11.293
 5366SOL    HW227438   3.079   1.350  11.384
 5367SOL     OW27439   2.475   0.842  12.603
 5367SOL    HW127440   2.531   0.923  12.586
 5367SOL    HW227441   2.534   0.762  12.606
 5368SOL     OW27442   2.523   1.790  12.125
 5368SOL    HW127443   2.477   1.878  12.112
 5368SOL    HW227444   2.622   1.802  12.118
 5369SOL     OW27445   2.083   1.314  13.016
 5369SOL    HW127446   2.018   1.241  12.995
 5369SOL    HW227447   2.087   1.328  13.114
 5370SOL     OW27448   1.941   1.240  11.825
 5370SOL    HW127449   1.940   1.193  11.913
 5370SOL    HW227450   2.023   1.212  11.774
 5371SOL     OW27451   3.286   0.214  12.284
 5371SOL    HW127452   3.338   0.149  12.339
 5371SOL    HW227453   3.237   0.277  12.345
 5372SOL     OW27454   2.632   1.330  11.473
 5372SOL    HW127455   2.586   1.243  11.490
 5372SOL    HW227456   2.723   1.327  11.514
 5373SOL     OW27457   2.480   1.567  12.456
 5373SOL    HW127458   2.475   1.649  12.513
 5373SOL    HW227459   2.569   1.564  12.411
 5374SOL     OW27460   1.901   1.077  11.472
 5374SOL    HW127461   2.000   1.066  11.463
 5374SOL    HW227462   1.861   0.991  11.504
 5375SOL     OW27463   2.737   1.646  11.509
 5375SOL    HW127464   2.660   1.611  11.455
 5375SOL    HW227465   2.705   1.717  11.571
 5376SOL     OW27466   2.087   0.275  14.030
 5376SOL    HW127467   2.122   0.258  14.122
 5376SOL    HW227468   1.999   0.230  14.018
 5377SOL     OW27469   3.417   1.511  13.737
 5377SOL    HW127470   3.360   1.495  13.818
 5377SOL    HW227471   3.358   1.521  13.657
 5378SOL     OW27472   2.630   1.144  14.057
 5378SOL    HW127473   2.552   1.161  14.117
 5378SOL    HW227474   2.664   1.231  14.021
 5379SOL     OW27475   2.548   1.161  14.837
 5379SOL    HW127476   2.608   1.240  14.851
 5379SOL    HW227477   2.462   1.192  14.796
 5380SOL     OW27478   2.989   1.341  14.724
 5380SOL    HW127479   3.036   1.341  14.812
 5380SOL    HW227480   2.941   1.254  14.713
 5381SOL     OW27481   2.482   1.786  14.473
 5381SOL    HW127482   2.390   1.769  14.508
 5381SOL    HW227483   2.510   1.878  14.499
 5382SOL     OW27484   3.456   0.114  14.514
 5382SOL    HW127485   3.438   0.181  14.442
 5382SOL    HW227486   3.453   0.160  14.603
 5383SOL     OW27487   1.984   0.643  13.597
 5383SOL    HW127488   1.939   0.555  13.614
 5383SOL    HW227489   1.983   0.697  13.681
 5384SOL     OW27490   1.889   1.596  13.151
 5384SOL    HW127491   1.870   1.500  13.172
 5384SOL    HW227492   1.856   1.654  13.226
 5385SOL     OW27493   2.475   1.365  13.760
 5385SOL    HW127494   2.426   1.278  13.769
 5385SOL    HW227495   2.452   1.408  13.673
 5386SOL     OW27496   3.049   1.792  14.650
 5386SOL    HW127497   3.073   1.852  14.574
 5386SOL    HW227498   3.056   1.697  14.620
 5387SOL     OW27499   3.438   1.662  13.341
 5387SOL    HW127500   3.527   1.708  13.344
 5387SOL    HW227501   3.417   1.638  13.246
 5388SOL     OW27502   2.835   0.890  14.606
 5388SOL    HW127503   2.881   0.806  14.577
 5388SOL    HW227504   2.779   0.924  14.531
 5389SOL     OW27505   2.323   1.266  14.761
 5389SOL    HW127506   2.273   1.267  14.675
 5389SOL    HW227507   2.260   1.248  14.837
 5390SOL     OW27508   2.973   1.776  13.271
 5390SOL    HW127509   2.913   1.714  13.321
 5390SOL    HW227510   3.004   1.732  13.186
 5391SOL     OW27511   3.409   0.222  14.763
 5391SOL    HW127512   3.404   0.259  14.855
 5391SOL    HW227513   3.337   0.153  14.751
 5392SOL     OW27514   2.784   0.503  13.933
 5392SOL    HW127515   2.759   0.494  13.837
 5392SOL    HW227516   2.832   0.421  13.964
 5393SOL     OW27517   2.797   0.236  13.514
 5393SOL    HW127518   2.749   0.277  13.436
 5393SOL    HW227519   2.896   0.234  13.495
 5394SOL     OW27520   2.894   0.549  13.050
 5394SOL    HW127521   2.853   0.631  13.011
 5394SOL    HW227522   2.958   0.575  13.123
 5395SOL     OW27523   2.423   0.222  14.181
 5395SOL    HW127524   2.461   0.138  14.218
 5395SOL    HW227525   2.335   0.241  14.225
 5396SOL     OW27526   3.291   1.173  13.901
 5396SOL    HW127527   3.236   1.089  13.894
 5396SOL    HW227528   3.317   1.202  13.809
 5397SOL     OW27529   3.719   0.833  13.411
 5397SOL    HW127530   3.761   0.769  13.475
 5397SOL    HW227531   3.681   0.782  13.333
 5398SOL     OW27532   2.389   0.256  13.362
 5398SOL    HW127533   2.416   0.197  13.287
 5398SOL    HW227534   2.389   0.351  13.331
 5399SOL     OW27535   2.973   1.195  14.134
 5399SOL    HW127536   2.933   1.239  14.215
 5399SOL    HW227537   2.932   1.232  14.051
 5400SOL     OW27538   2.842   1.116  14.753
 5400SOL    HW127539   2.743   1.122  14.763
 5400SOL    HW227540   2.865   1.036  14.697
 5401SOL     OW27541   2.229   1.100  13.535
 5401SOL    HW127542   2.222   1.183  13.479
 5401SOL    HW227543   2.233   1.020  13.475
 5402SOL     OW27544   2.366   0.050  14.774
 5402SOL    HW127545   2.324  -0.007  14.704
 5402SOL    HW227546   2.300   0.119  14.806
 5403SOL     OW27547   3.590   0.935  14.888
 5403SOL    HW127548   3.544   0.928  14.799
 5403SOL    HW227549   3.528   0.979  14.954
 5404SOL     OW27550   2.212   0.898  14.838
 5404SOL    HW127551   2.288   0.942  14.886
 5404SOL    HW227552   2.247   0.851  14.756
 5405SOL     OW27553   2.930   1.333  13.883
 5405SOL    HW127554   2.937   1.249  13.828
 5405SOL    HW227555   2.992   1.402  13.847
 5406SOL     OW27556   2.201   0.509  14.040
 5406SOL    HW127557   2.149   0.426  14.023
 5406SOL    HW227558   2.278   0.514  13.976
 5407SOL     OW27559   3.000   0.380  14.712
 5407SOL    HW127560   2.955   0.443  14.776
 5407SOL    HW227561   3.093   0.411  14.695
 5408SOL     OW27562   2.533   0.464  14.303
 5408SOL    HW127563   2.499   0.375  14.273
 5408SOL    HW227564   2.559   0.518  14.223
 5409SOL     OW27565   2.335   0.500  13.225
 5409SOL    HW127566   2.396   0.580  13.229
 5409SOL    HW227567   2.240   0.531  13.232
 5410SOL     OW27568   3.056   1.612  13.065
 5410SOL    HW127569   3.062   1.519  13.102
 5410SOL    HW227570   2.997   1.612  12.985
 5411SOL     OW27571   2.778   0.910  13.325
 5411SOL    HW127572   2.841   0.948  13.257
 5411SOL    HW227573   2.818   0.827  13.364
 5412SOL     OW27574   2.234   1.288  14.524
 5412SOL    HW127575   2.221   1.381  14.490
 5412SOL    HW227576   2.150   1.236  14.511
 5413SOL     OW27577   2.901   1.098  13.730
 5413SOL    HW127578   2.831   1.051  13.784
 5413SOL    HW227579   2.960   1.030  13.687
 5414SOL     OW27580   1.967   1.013  14.760
 5414SOL    HW127581   1.890   0.980  14.814
 5414SOL    HW227582   2.052   0.983  14.802
 5415SOL     OW27583   2.252   1.741  14.594
 5415SOL    HW127584   2.161   1.782  14.592
 5415SOL    HW227585   2.245   1.647  14.626
 5416SOL     OW27586   2.083   1.314  14.878
 5416SOL    HW127587   2.018   1.241  14.857
 5416SOL    HW227588   2.087   1.328  14.976
 5417SOL     OW27589   1.941   1.240  13.687
 5417SOL    HW127590   1.940   1.193  13.775
 5417SOL    HW227591   2.023   1.212  13.636
 5418SOL     OW27592   2.534   1.391  14.658
 5418SOL    HW127593   2.456   1.341  14.696
 5418SOL    HW227594   2.531   1.486  14.689
 5419SOL     OW27595   2.290   0.424  13.554
 5419SOL    HW127596   2.320   0.352  13.492
 5419SOL    HW227597   2.251   0.384  13.637
 5420SOL     OW27598   2.632   1.330  13.335
 5420SOL    HW127599   2.586   1.243  13.352
 5420SOL    HW227600   2.723   1.327  13.376
 5421SOL     OW27601   3.455   0.221  13.916
 5421SOL    HW127602   3.371   0.220  13.970
 5421SOL    HW227603   3.457   0.304  13.860
 5422SOL     OW27604   2.087   0.275  15.893
 5422SOL    HW127605   2.122   0.258  15.985
 5422SOL    HW227606   1.999   0.230  15.881
 5423SOL     OW27607   2.431   1.275  16.062
 5423SOL    HW127608   2.338   1.268  16.025
 5423SOL    HW227609   2.442   1.364  16.106
 5424SOL     OW27610   3.417   1.511  15.599
 5424SOL    HW127611   3.360   1.495  15.680
 5424SOL    HW227612   3.358   1.521  15.519
 5425SOL     OW27613   2.630   1.144  15.920
 5425SOL    HW127614   2.552   1.161  15.980
 5425SOL    HW227615   2.664   1.231  15.884
 5426SOL     OW27616   2.712   0.798  16.720
 5426SOL    HW127617   2.708   0.874  16.785
 5426SOL    HW227618   2.734   0.834  16.629
 5427SOL     OW27619   2.548   1.161  16.700
 5427SOL    HW127620   2.608   1.240  16.714
 5427SOL    HW227621   2.462   1.192  16.659
 5428SOL     OW27622   2.093   1.713  15.379
 5428SOL    HW127623   2.127   1.790  15.433
 5428SOL    HW227624   2.137   1.713  15.289
 5429SOL     OW27625   2.468   0.964  15.019
 5429SOL    HW127626   2.475   1.048  14.965
 5429SOL    HW227627   2.514   0.977  15.107
 5430SOL     OW27628   3.529   1.714  15.468
 5430SOL    HW127629   3.488   1.691  15.380
 5430SOL    HW227630   3.511   1.640  15.533
 5431SOL     OW27631   3.143   0.345  15.841
 5431SOL    HW127632   3.057   0.295  15.828
 5431SOL    HW227633   3.205   0.291  15.897
 5432SOL     OW27634   3.438   1.662  15.203
 5432SOL    HW127635   3.527   1.708  15.206
 5432SOL    HW227636   3.417   1.638  15.108
 5433SOL     OW27637   2.835   0.890  16.469
 5433SOL    HW127638   2.881   0.806  16.440
 5433SOL    HW227639   2.779   0.924  16.394
 5434SOL     OW27640   2.903   0.701  15.325
 5434SOL    HW127641   2.929   0.697  15.421
 5434SOL    HW227642   2.818   0.650  15.311
 5435SOL     OW27643   1.992   1.821  16.468
 5435SOL    HW127644   1.982   1.806  16.567
 5435SOL    HW227645   1.906   1.857  16.432
 5436SOL     OW27646   3.581   0.585  16.728
 5436SOL    HW127647   3.555   0.674  16.692
 5436SOL    HW227648   3.579   0.517  16.655
 5437SOL     OW27649   2.323   1.266  16.624
 5437SOL    HW127650   2.273   1.267  16.538
 5437SOL    HW227651   2.260   1.248  16.700
 5438SOL     OW27652   2.973   1.776  15.133
 5438SOL    HW127653   2.913   1.714  15.183
 5438SOL    HW227654   3.004   1.732  15.048
 5439SOL     OW27655   2.064   0.285  16.395
 5439SOL    HW127656   1.984   0.345  16.382
 5439SOL    HW227657   2.054   0.236  16.481
 5440SOL     OW27658   3.494   1.377  14.977
 5440SOL    HW127659   3.462   1.471  14.967
 5440SOL    HW227660   3.418   1.314  14.965
 5441SOL     OW27661   2.326   1.743  15.219
 5441SOL    HW127662   2.359   1.782  15.305
 5441SOL    HW227663   2.402   1.736  15.154
 5442SOL     OW27664   2.159   0.035  15.067
 5442SOL    HW127665   2.208   0.119  15.046
 5442SOL    HW227666   2.221  -0.030  15.112
 5443SOL     OW27667   2.938   0.683  16.361
 5443SOL    HW127668   2.858   0.622  16.364
 5443SOL    HW227669   3.019   0.630  16.337
 5444SOL     OW27670   2.894   0.549  14.912
 5444SOL    HW127671   2.853   0.631  14.873
 5444SOL    HW227672   2.958   0.575  14.985
 5445SOL     OW27673   2.423   0.222  16.044
 5445SOL    HW127674   2.461   0.138  16.081
 5445SOL    HW227675   2.335   0.241  16.088
 5446SOL     OW27676   2.728   0.454  15.538
 5446SOL    HW127677   2.696   0.526  15.476
 5446SOL    HW227678   2.752   0.373  15.485
 5447SOL     OW27679   2.350   1.385  15.070
 5447SOL    HW127680   2.263   1.370  15.117
 5447SOL    HW227681   2.333   1.411  14.975
 5448SOL     OW27682   3.526   1.280  15.553
 5448SOL    HW127683   3.625   1.288  15.567
 5448SOL    HW227684   3.481   1.364  15.584
 5449SOL     OW27685   3.454   1.629  16.522
 5449SOL    HW127686   3.481   1.663  16.432
 5449SOL    HW227687   3.533   1.591  16.568
 5450SOL     OW27688   2.842   1.116  16.616
 5450SOL    HW127689   2.743   1.122  16.626
 5450SOL    HW227690   2.865   1.036  16.560
 5451SOL     OW27691   2.567   1.050  15.264
 5451SOL    HW127692   2.553   1.057  15.363
 5451SOL    HW227693   2.651   0.999  15.246
 5452SOL     OW27694   3.136   0.386  16.159
 5452SOL    HW127695   3.157   0.460  16.223
 5452SOL    HW227696   3.047   0.403  16.116
 5453SOL     OW27697   2.428   0.537  15.761
 5453SOL    HW127698   2.440   0.603  15.687
 5453SOL    HW227699   2.474   0.571  15.844
 5454SOL     OW27700   3.114   1.348  15.284
 5454SOL    HW127701   3.164   1.425  15.324
 5454SOL    HW227702   3.019   1.350  15.316
 5455SOL     OW27703   2.216   1.510  16.226
 5455SOL    HW127704   2.195   1.466  16.139
 5455SOL    HW227705   2.313   1.536  16.229
 5456SOL     OW27706   3.071   0.525  15.171
 5456SOL    HW127707   3.084   0.441  15.225
 5456SOL    HW227708   3.042   0.599  15.231
 5457SOL     OW27709   2.169   0.213  16.128
 5457SOL    HW127710   2.146   0.250  16.218
 5457SOL    HW227711   2.139   0.118  16.122
 5458SOL     OW27712   2.842   1.573  16.597
 5458SOL    HW127713   2.822   1.617  16.509
 5458SOL    HW227714   2.881   1.482  16.581
 5459SOL     OW27715   3.402   0.274  15.021
 5459SOL    HW127716   3.341   0.199  15.044
 5459SOL    HW227717   3.424   0.326  15.104
 5460SOL     OW27718   3.000   0.380  16.575
 5460SOL    HW127719   2.955   0.443  16.639
 5460SOL    HW227720   3.093   0.411  16.558
 5461SOL     OW27721   1.902   0.544  16.011
 5461SOL    HW127722   1.987   0.511  15.970
 5461SOL    HW227723   1.915   0.559  16.109
 5462SOL     OW27724   2.677   0.572  15.221
 5462SOL    HW127725   2.684   0.483  15.175
 5462SOL    HW227726   2.583   0.606  15.213
 5463SOL     OW27727   3.519   0.604  16.103
 5463SOL    HW127728   3.481   0.535  16.165
 5463SOL    HW227729   3.601   0.568  16.059
 5464SOL     OW27730   3.621   1.747  16.051
 5464SOL    HW127731   3.682   1.777  15.978
 5464SOL    HW227732   3.583   1.658  16.029
 5465SOL     OW27733   3.250   1.573  15.373
 5465SOL    HW127734   3.317   1.585  15.299
 5465SOL    HW227735   3.210   1.662  15.396
 5466SOL     OW27736   2.692   1.273  16.319
 5466SOL    HW127737   2.687   1.306  16.414
 5466SOL    HW227738   2.606   1.292  16.273
 5467SOL     OW27739   2.534   1.616  15.050
 5467SOL    HW127740   2.543   1.626  14.951
 5467SOL    HW227741   2.494   1.527  15.071
 5468SOL     OW27742   3.512   1.720  16.291
 5468SOL    HW127743   3.565   1.730  16.207
 5468SOL    HW227744   3.485   1.810  16.325
 5469SOL     OW27745   3.056   1.612  14.927
 5469SOL    HW127746   3.062   1.519  14.964
 5469SOL    HW227747   2.997   1.612  14.847
 5470SOL     OW27748   2.778   0.910  15.187
 5470SOL    HW127749   2.841   0.948  15.119
 5470SOL    HW227750   2.818   0.827  15.226
 5471SOL     OW27751   3.366   1.607  14.940
 5471SOL    HW127752   3.274   1.644  14.947
 5471SOL    HW227753   3.404   1.627  14.850
 5472SOL     OW27754   3.476   1.292  16.186
 5472SOL    HW127755   3.536   1.295  16.266
 5472SOL    HW227756   3.401   1.356  16.199
 5473SOL     OW27757   2.901   1.098  15.592
 5473SOL    HW127758   2.831   1.051  15.646
 5473SOL    HW227759   2.960   1.030  15.549
 5474SOL     OW27760   2.117   1.348  15.186
 5474SOL    HW127761   2.021   1.349  15.159
 5474SOL    HW227762   2.129   1.401  15.270
 5475SOL     OW27763   1.934   0.166  15.214
 5475SOL    HW127764   1.917   0.249  15.160
 5475SOL    HW227765   2.024   0.129  15.192
 5476SOL     OW27766   3.045   1.335  15.015
 5476SOL    HW127767   2.946   1.324  15.017
 5476SOL    HW227768   3.079   1.350  15.108
 5477SOL     OW27769   2.475   0.842  16.328
 5477SOL    HW127770   2.531   0.923  16.311
 5477SOL    HW227771   2.534   0.762  16.331
 5478SOL     OW27772   2.456   0.745  15.548
 5478SOL    HW127773   2.506   0.830  15.529
 5478SOL    HW227774   2.368   0.747  15.500
 5479SOL     OW27775   2.721   1.374  14.912
 5479SOL    HW127776   2.675   1.389  15.000
 5479SOL    HW227777   2.765   1.459  14.882
 5480SOL     OW27778   2.523   1.790  15.850
 5480SOL    HW127779   2.477   1.878  15.837
 5480SOL    HW227780   2.622   1.802  15.843
 5481SOL     OW27781   2.721   0.956  15.757
 5481SOL    HW127782   2.775   0.887  15.805
 5481SOL    HW227783   2.689   1.025  15.823
 5482SOL     OW27784   2.945   0.984  14.983
 5482SOL    HW127785   2.922   1.037  14.901
 5482SOL    HW227786   3.026   0.928  14.964
 5483SOL     OW27787   3.723   1.569  15.747
 5483SOL    HW127788   3.652   1.557  15.677
 5483SOL    HW227789   3.724   1.490  15.807
 5484SOL     OW27790   2.534   1.391  16.521
 5484SOL    HW127791   2.456   1.341  16.559
 5484SOL    HW227792   2.531   1.486  16.552
 5485SOL     OW27793   3.567   1.487  16.001
 5485SOL    HW127794   3.474   1.462  15.974
 5485SOL    HW227795   3.593   1.437  16.083
 5486SOL     OW27796   2.674   1.586  15.583
 5486SOL    HW127797   2.706   1.596  15.489
 5486SOL    HW227798   2.595   1.524  15.585
 5487SOL     OW27799   2.092   0.628  16.872
 5487SOL    HW127800   1.999   0.626  16.909
 5487SOL    HW227801   2.093   0.589  16.780
 5488SOL     OW27802   3.617   0.607  16.990
 5488SOL    HW127803   3.605   0.594  16.891
 5488SOL    HW227804   3.587   0.526  17.039
 5489SOL     OW27805   3.465   0.447  17.496
 5489SOL    HW127806   3.391   0.493  17.446
 5489SOL    HW227807   3.516   0.515  17.549
 5490SOL     OW27808   2.092   1.434  17.297
 5490SOL    HW127809   2.066   1.530  17.297
 5490SOL    HW227810   2.021   1.380  17.342
 5491SOL     OW27811   2.468   0.964  16.882
 5491SOL    HW127812   2.475   1.048  16.828
 5491SOL    HW227813   2.514   0.977  16.970
 5492SOL     OW27814   3.704   1.767  17.118
 5492SOL    HW127815   3.758   1.738  17.198
 5492SOL    HW227816   3.734   1.857  17.089
 5493SOL     OW27817   3.529   1.714  17.331
 5493SOL    HW127818   3.488   1.691  17.243
 5493SOL    HW227819   3.511   1.640  17.396
 5494SOL     OW27820   2.460   0.729  17.029
 5494SOL    HW127821   2.484   0.798  16.961
 5494SOL    HW227822   2.382   0.762  17.083
 5495SOL     OW27823   3.143   0.345  17.703
 5495SOL    HW127824   3.057   0.295  17.690
 5495SOL    HW227825   3.205   0.291  17.759
 5496SOL     OW27826   3.438   1.662  17.066
 5496SOL    HW127827   3.527   1.708  17.069
 5496SOL    HW227828   3.417   1.638  16.971
 5497SOL     OW27829   2.903   0.701  17.188
 5497SOL    HW127830   2.929   0.697  17.284
 5497SOL    HW227831   2.818   0.650  17.174
 5498SOL     OW27832   2.412   0.196  17.644
 5498SOL    HW127833   2.407   0.191  17.744
 5498SOL    HW227834   2.414   0.292  17.615
 5499SOL     OW27835   3.320   0.735  17.487
 5499SOL    HW127836   3.315   0.670  17.562
 5499SOL    HW227837   3.400   0.794  17.500
 5500SOL     OW27838   2.973   1.776  16.996
 5500SOL    HW127839   2.913   1.714  17.046
 5500SOL    HW227840   3.004   1.732  16.911
 5501SOL     OW27841   3.494   1.377  16.840
 5501SOL    HW127842   3.462   1.471  16.830
 5501SOL    HW227843   3.418   1.314  16.828
 5502SOL     OW27844   3.262   0.107  17.185
 5502SOL    HW127845   3.238   0.070  17.095
 5502SOL    HW227846   3.361   0.123  17.189
 5503SOL     OW27847   2.159   0.035  16.930
 5503SOL    HW127848   2.208   0.119  16.909
 5503SOL    HW227849   2.221  -0.030  16.975
 5504SOL     OW27850   2.321   1.152  17.500
 5504SOL    HW127851   2.250   1.125  17.565
 5504SOL    HW227852   2.295   1.124  17.407
 5505SOL     OW27853   3.133   1.797  17.350
 5505SOL    HW127854   3.177   1.861  17.286
 5505SOL    HW227855   3.083   1.849  17.420
 5506SOL     OW27856   3.291   1.173  17.626
 5506SOL    HW127857   3.236   1.089  17.619
 5506SOL    HW227858   3.317   1.202  17.534
 5507SOL     OW27859   3.719   0.833  17.136
 5507SOL    HW127860   3.761   0.769  17.200
 5507SOL    HW227861   3.681   0.782  17.058
 5508SOL     OW27862   2.389   0.256  17.087
 5508SOL    HW127863   2.416   0.197  17.012
 5508SOL    HW227864   2.389   0.351  17.056
 5509SOL     OW27865   2.272   0.813  18.010
 5509SOL    HW127866   2.358   0.825  18.060
 5509SOL    HW227867   2.230   0.726  18.037
 5510SOL     OW27868   2.229   1.100  17.260
 5510SOL    HW127869   2.222   1.183  17.204
 5510SOL    HW227870   2.233   1.020  17.200
 5511SOL     OW27871   2.428   0.537  17.624
 5511SOL    HW127872   2.440   0.603  17.550
 5511SOL    HW227873   2.474   0.571  17.707
 5512SOL     OW27874   3.134   1.445  17.901
 5512SOL    HW127875   3.181   1.458  17.988
 5512SOL    HW227876   3.068   1.371  17.910
 5513SOL     OW27877   3.444   0.639  17.231
 5513SOL    HW127878   3.413   0.700  17.304
 5513SOL    HW227879   3.494   0.691  17.162
 5514SOL     OW27880   2.594   0.634  17.823
 5514SOL    HW127881   2.653   0.608  17.747
 5514SOL    HW227882   2.566   0.730  17.812
 5515SOL     OW27883   2.169   0.063  17.377
 5515SOL    HW127884   2.158   0.157  17.410
 5515SOL    HW227885   2.164   0.000  17.454
 5516SOL     OW27886   3.484   0.367  17.133
 5516SOL    HW127887   3.486   0.291  17.197
 5516SOL    HW227888   3.436   0.444  17.173
 5517SOL     OW27889   2.181   0.810  17.708
 5517SOL    HW127890   2.274   0.846  17.713
 5517SOL    HW227891   2.175   0.725  17.760
 5518SOL     OW27892   2.201   0.509  17.765
 5518SOL    HW127893   2.149   0.426  17.748
 5518SOL    HW227894   2.278   0.514  17.701
 5519SOL     OW27895   3.022   0.207  18.236
 5519SOL    HW127896   3.022   0.271  18.313
 5519SOL    HW227897   3.050   0.255  18.153
 5520SOL     OW27898   1.902   0.544  17.873
 5520SOL    HW127899   1.987   0.511  17.832
 5520SOL    HW227900   1.915   0.559  17.971
 5521SOL     OW27901   2.677   0.572  17.084
 5521SOL    HW127902   2.684   0.483  17.038
 5521SOL    HW227903   2.583   0.606  17.076
 5522SOL     OW27904   2.533   0.464  18.028
 5522SOL    HW127905   2.499   0.375  17.998
 5522SOL    HW227906   2.559   0.518  17.948
 5523SOL     OW27907   3.250   1.573  17.236
 5523SOL    HW127908   3.317   1.585  17.162
 5523SOL    HW227909   3.210   1.662  17.259
 5524SOL     OW27910   3.142   0.927  17.431
 5524SOL    HW127911   3.202   0.846  17.433
 5524SOL    HW227912   3.182   0.996  17.371
 5525SOL     OW27913   2.125   0.326  17.479
 5525SOL    HW127914   2.046   0.377  17.445
 5525SOL    HW227915   2.116   0.311  17.577
 5526SOL     OW27916   2.778   0.910  17.050
 5526SOL    HW127917   2.841   0.948  16.982
 5526SOL    HW227918   2.818   0.827  17.089
 5527SOL     OW27919   2.117   1.348  17.049
 5527SOL    HW127920   2.021   1.349  17.022
 5527SOL    HW227921   2.129   1.401  17.133
 5528SOL     OW27922   1.937   0.345  16.792
 5528SOL    HW127923   1.845   0.317  16.763
 5528SOL    HW227924   1.968   0.422  16.736
 5529SOL     OW27925   1.934   0.166  17.077
 5529SOL    HW127926   1.917   0.249  17.023
 5529SOL    HW227927   2.024   0.129  17.055
 5530SOL     OW27928   3.045   1.335  16.878
 5530SOL    HW127929   2.946   1.324  16.880
 5530SOL    HW227930   3.079   1.350  16.971
 5531SOL     OW27931   2.456   0.745  17.411
 5531SOL    HW127932   2.506   0.830  17.392
 5531SOL    HW227933   2.368   0.747  17.363
 5532SOL     OW27934   2.721   1.374  16.775
 5532SOL    HW127935   2.675   1.389  16.863
 5532SOL    HW227936   2.765   1.459  16.745
 5533SOL     OW27937   2.523   1.790  17.712
 5533SOL    HW127938   2.477   1.878  17.699
 5533SOL    HW227939   2.622   1.802  17.705
 5534SOL     OW27940   2.721   0.956  17.620
 5534SOL    HW127941   2.775   0.887  17.668
 5534SOL    HW227942   2.689   1.025  17.686
 5535SOL     OW27943   2.945   0.984  16.846
 5535SOL    HW127944   2.922   1.037  16.764
 5535SOL    HW227945   3.026   0.928  16.827
 5536SOL     OW27946   1.941   1.240  17.412
 5536SOL    HW127947   1.940   1.193  17.500
 5536SOL    HW227948   2.023   1.212  17.361
 5537SOL     OW27949   2.290   0.424  17.279
 5537SOL    HW127950   2.320   0.352  17.217
 5537SOL    HW227951   2.251   0.384  17.362
 5538SOL     OW27952   3.286   0.214  17.871
 5538SOL    HW127953   3.338   0.149  17.926
 5538SOL    HW227954   3.237   0.277  17.932
 5539SOL     OW27955   3.162   0.453  17.450
 5539SOL    HW127956   3.103   0.533  17.454
 5539SOL    HW227957   3.177   0.418  17.543
 5540SOL     OW27958   3.455   0.221  17.641
 5540SOL    HW127959   3.371   0.220  17.695
 5540SOL    HW227960   3.457   0.304  17.585
 5541SOL     OW27961   1.881   2.230   0.647
 5541SOL    HW127962   1.799   2.273   0.686
 5541SOL    HW227963   1.853   2.157   0.584
 5542SOL     OW27964   2.431   3.137   1.165
 5542SOL    HW127965   2.338   3.130   1.128
 5542SOL    HW227966   2.442   3.226   1.209
 5543SOL     OW27967   3.417   3.373   0.703
 5543SOL    HW127968   3.360   3.357   0.784
 5543SOL    HW227969   3.358   3.383   0.623
 5544SOL     OW27970   2.997   2.565   0.717
 5544SOL    HW127971   3.054   2.643   0.692
 5544SOL    HW227972   2.937   2.591   0.793
 5545SOL     OW27973   3.617   2.469   0.231
 5545SOL    HW127974   3.605   2.456   0.132
 5545SOL    HW227975   3.587   2.388   0.280
 5546SOL     OW27976   2.630   3.006   1.023
 5546SOL    HW127977   2.552   3.023   1.083
 5546SOL    HW227978   2.664   3.093   0.987
 5547SOL     OW27979   2.712   2.660   1.823
 5547SOL    HW127980   2.708   2.736   1.888
 5547SOL    HW227981   2.734   2.696   1.732
 5548SOL     OW27982   2.547   2.874   0.665
 5548SOL    HW127983   2.616   2.858   0.735
 5548SOL    HW227984   2.474   2.931   0.703
 5549SOL     OW27985   2.548   3.023   1.803
 5549SOL    HW127986   2.608   3.102   1.817
 5549SOL    HW227987   2.462   3.054   1.762
 5550SOL     OW27988   2.197   3.297   1.061
 5550SOL    HW127989   2.119   3.266   1.008
 5550SOL    HW227990   2.255   3.355   1.004
 5551SOL     OW27991   3.322   3.367   1.339
 5551SOL    HW127992   3.346   3.461   1.365
 5551SOL    HW227993   3.306   3.313   1.421
 5552SOL     OW27994   2.300   2.254   1.499
 5552SOL    HW127995   2.382   2.198   1.508
 5552SOL    HW227996   2.219   2.196   1.503
 5553SOL     OW27997   2.093   3.575   0.483
 5553SOL    HW127998   2.127   3.652   0.537
 5553SOL    HW227999   2.137   3.575   0.393
 5554SOL     OW28000   2.989   3.203   1.690
 5554SOL    HW128001   3.036   3.203   1.778
 5554SOL    HW228002   2.941   3.116   1.679
 5555SOL     OW28003   2.092   3.296   0.538
 5555SOL    HW128004   2.066   3.392   0.538
 5555SOL    HW228005   2.021   3.242   0.583
 5556SOL     OW28006   2.102   2.953   0.886
 5556SOL    HW128007   2.116   2.869   0.938
 5556SOL    HW228008   2.047   3.017   0.941
 5557SOL     OW28009   2.482   3.648   1.439
 5557SOL    HW128010   2.390   3.631   1.474
 5557SOL    HW228011   2.510   3.740   1.465
 5558SOL     OW28012   3.704   3.629   0.359
 5558SOL    HW128013   3.758   3.600   0.439
 5558SOL    HW228014   3.734   3.719   0.330
 5559SOL     OW28015   1.889   3.458   0.117
 5559SOL    HW128016   1.870   3.362   0.138
 5559SOL    HW228017   1.856   3.516   0.192
 5560SOL     OW28018   3.551   2.784   0.612
 5560SOL    HW128019   3.646   2.755   0.620
 5560SOL    HW228020   3.543   2.849   0.537
 5561SOL     OW28021   3.503   2.970   0.432
 5561SOL    HW128022   3.589   2.972   0.380
 5561SOL    HW228023   3.517   3.017   0.520
 5562SOL     OW28024   2.475   3.227   0.726
 5562SOL    HW128025   2.426   3.140   0.735
 5562SOL    HW228026   2.452   3.270   0.639
 5563SOL     OW28027   3.155   3.090   1.423
 5563SOL    HW128028   3.192   3.017   1.365
 5563SOL    HW228029   3.207   3.095   1.508
 5564SOL     OW28030   2.059   2.838   1.264
 5564SOL    HW128031   2.148   2.793   1.250
 5564SOL    HW228032   1.986   2.773   1.245
 5565SOL     OW28033   3.387   2.861   0.190
 5565SOL    HW128034   3.324   2.785   0.203
 5565SOL    HW228035   3.435   2.879   0.276
 5566SOL     OW28036   3.328   3.279   0.953
 5566SOL    HW128037   3.269   3.285   1.033
 5566SOL    HW228038   3.313   3.191   0.907
 5567SOL     OW28039   3.529   3.576   0.572
 5567SOL    HW128040   3.488   3.553   0.484
 5567SOL    HW228041   3.511   3.502   0.637
 5568SOL     OW28042   3.438   3.524   0.307
 5568SOL    HW128043   3.527   3.570   0.310
 5568SOL    HW228044   3.417   3.500   0.212
 5569SOL     OW28045   2.669   2.467   1.465
 5569SOL    HW128046   2.622   2.464   1.554
 5569SOL    HW228047   2.618   2.412   1.399
 5570SOL     OW28048   2.835   2.752   1.572
 5570SOL    HW128049   2.881   2.668   1.543
 5570SOL    HW228050   2.779   2.786   1.497
 5571SOL     OW28051   2.903   2.563   0.429
 5571SOL    HW128052   2.929   2.559   0.525
 5571SOL    HW228053   2.818   2.512   0.415
 5572SOL     OW28054   1.992   3.683   1.571
 5572SOL    HW128055   1.982   3.668   1.670
 5572SOL    HW228056   1.906   3.719   1.535
 5573SOL     OW28057   3.581   2.447   1.831
 5573SOL    HW128058   3.555   2.536   1.795
 5573SOL    HW228059   3.579   2.379   1.758
 5574SOL     OW28060   3.224   3.006   0.545
 5574SOL    HW128061   3.307   2.977   0.497
 5574SOL    HW228062   3.175   3.073   0.489
 5575SOL     OW28063   2.213   3.663   0.853
 5575SOL    HW128064   2.263   3.577   0.859
 5575SOL    HW228065   2.278   3.740   0.850
 5576SOL     OW28066   3.657   2.928   0.873
 5576SOL    HW128067   3.595   2.913   0.797
 5576SOL    HW228068   3.605   2.939   0.958
 5577SOL     OW28069   3.089   3.412   1.506
 5577SOL    HW128070   3.095   3.335   1.570
 5577SOL    HW228071   3.037   3.386   1.426
 5578SOL     OW28072   2.323   3.128   1.727
 5578SOL    HW128073   2.273   3.129   1.641
 5578SOL    HW228074   2.260   3.110   1.803
 5579SOL     OW28075   2.973   3.638   0.237
 5579SOL    HW128076   2.913   3.576   0.287
 5579SOL    HW228077   3.004   3.594   0.152
 5580SOL     OW28078   3.494   3.239   0.081
 5580SOL    HW128079   3.462   3.333   0.071
 5580SOL    HW228080   3.418   3.176   0.069
 5581SOL     OW28081   2.326   3.605   0.323
 5581SOL    HW128082   2.359   3.644   0.409
 5581SOL    HW228083   2.402   3.598   0.258
 5582SOL     OW28084   2.111   3.647   1.241
 5582SOL    HW128085   2.168   3.582   1.291
 5582SOL    HW228086   2.095   3.614   1.148
 5583SOL     OW28087   2.802   3.560   0.904
 5583SOL    HW128088   2.882   3.503   0.925
 5583SOL    HW228089   2.753   3.520   0.827
 5584SOL     OW28090   2.244   2.562   0.480
 5584SOL    HW128091   2.289   2.472   0.477
 5584SOL    HW228092   2.150   2.551   0.513
 5585SOL     OW28093   3.409   2.084   1.729
 5585SOL    HW128094   3.404   2.121   1.821
 5585SOL    HW228095   3.337   2.015   1.717
 5586SOL     OW28096   2.476   1.984   0.117
 5586SOL    HW128097   2.574   1.962   0.124
 5586SOL    HW228098   2.445   1.967   0.024
 5587SOL     OW28099   2.643   2.126   1.749
 5587SOL    HW128100   2.710   2.065   1.792
 5587SOL    HW228101   2.570   2.145   1.814
 5588SOL     OW28102   2.750   3.376   1.195
 5588SOL    HW128103   2.727   3.351   1.101
 5588SOL    HW228104   2.811   3.307   1.234
 5589SOL     OW28105   2.401   1.926   0.512
 5589SOL    HW128106   2.320   1.927   0.570
 5589SOL    HW228107   2.404   2.009   0.457
 5590SOL     OW28108   3.296   3.050   0.041
 5590SOL    HW128109   3.328   2.974   0.098
 5590SOL    HW228110   3.204   3.077   0.071
 5591SOL     OW28111   2.797   2.098   0.480
 5591SOL    HW128112   2.749   2.139   0.402
 5591SOL    HW228113   2.896   2.096   0.461
 5592SOL     OW28114   2.321   3.014   0.741
 5592SOL    HW128115   2.250   2.987   0.806
 5592SOL    HW228116   2.295   2.986   0.648
 5593SOL     OW28117   1.940   2.418   1.386
 5593SOL    HW128118   2.032   2.417   1.345
 5593SOL    HW228119   1.934   2.492   1.453
 5594SOL     OW28120   3.291   3.035   0.867
 5594SOL    HW128121   3.236   2.951   0.860
 5594SOL    HW228122   3.317   3.064   0.775
 5595SOL     OW28123   3.328   2.452   0.992
 5595SOL    HW128124   3.298   2.357   0.999
 5595SOL    HW228125   3.401   2.468   1.058
 5596SOL     OW28126   3.719   2.695   0.377
 5596SOL    HW128127   3.761   2.631   0.441
 5596SOL    HW228128   3.681   2.644   0.299
 5597SOL     OW28129   3.526   3.142   0.657
 5597SOL    HW128130   3.625   3.150   0.671
 5597SOL    HW228131   3.481   3.226   0.688
 5598SOL     OW28132   2.389   2.118   0.328
 5598SOL    HW128133   2.416   2.059   0.253
 5598SOL    HW228134   2.389   2.213   0.297
 5599SOL     OW28135   3.616   3.085   1.588
 5599SOL    HW128136   3.707   3.046   1.575
 5599SOL    HW228137   3.624   3.181   1.612
 5600SOL     OW28138   2.926   3.209   1.340
 5600SOL    HW128139   2.846   3.186   1.395
 5600SOL    HW228140   3.009   3.183   1.389
 5601SOL     OW28141   3.454   3.491   1.625
 5601SOL    HW128142   3.481   3.525   1.535
 5601SOL    HW228143   3.533   3.453   1.671
 5602SOL     OW28144   2.842   2.978   1.719
 5602SOL    HW128145   2.743   2.984   1.729
 5602SOL    HW228146   2.865   2.898   1.663
 5603SOL     OW28147   2.272   2.675   1.251
 5603SOL    HW128148   2.358   2.687   1.301
 5603SOL    HW228149   2.230   2.588   1.278
 5604SOL     OW28150   1.926   3.426   1.331
 5604SOL    HW128151   1.880   3.508   1.297
 5604SOL    HW228152   2.024   3.445   1.340
 5605SOL     OW28153   2.229   2.962   0.501
 5605SOL    HW128154   2.222   3.045   0.445
 5605SOL    HW228155   2.233   2.882   0.441
 5606SOL     OW28156   3.114   3.210   0.388
 5606SOL    HW128157   3.164   3.287   0.428
 5606SOL    HW228158   3.019   3.212   0.420
 5607SOL     OW28159   3.134   3.307   1.142
 5607SOL    HW128160   3.181   3.320   1.229
 5607SOL    HW228161   3.068   3.233   1.151
 5608SOL     OW28162   3.444   2.501   0.472
 5608SOL    HW128163   3.413   2.562   0.545
 5608SOL    HW228164   3.494   2.553   0.403
 5609SOL     OW28165   2.216   3.372   1.329
 5609SOL    HW128166   2.195   3.328   1.242
 5609SOL    HW228167   2.313   3.398   1.332
 5610SOL     OW28168   2.264   2.613   1.598
 5610SOL    HW128169   2.332   2.668   1.551
 5610SOL    HW228170   2.304   2.525   1.625
 5611SOL     OW28171   2.875   1.967   1.770
 5611SOL    HW128172   2.881   2.052   1.718
 5611SOL    HW228173   2.907   1.891   1.713
 5612SOL     OW28174   2.366   1.912   1.740
 5612SOL    HW128175   2.324   1.855   1.670
 5612SOL    HW228176   2.300   1.981   1.772
 5613SOL     OW28177   1.899   3.172   1.282
 5613SOL    HW128178   1.952   3.123   1.350
 5613SOL    HW228179   1.921   3.270   1.287
 5614SOL     OW28180   3.484   2.229   0.374
 5614SOL    HW128181   3.486   2.153   0.438
 5614SOL    HW228182   3.436   2.306   0.414
 5615SOL     OW28183   2.842   3.435   1.700
 5615SOL    HW128184   2.822   3.479   1.612
 5615SOL    HW228185   2.881   3.344   1.684
 5616SOL     OW28186   3.721   3.380   1.605
 5616SOL    HW128187   3.735   3.407   1.510
 5616SOL    HW228188   3.804   3.402   1.658
 5617SOL     OW28189   2.212   2.760   1.804
 5617SOL    HW128190   2.288   2.804   1.852
 5617SOL    HW228191   2.247   2.713   1.722
 5618SOL     OW28192   1.950   3.663   0.927
 5618SOL    HW128193   1.908   3.577   0.900
 5618SOL    HW228194   2.044   3.666   0.893
 5619SOL     OW28195   2.366   3.430   0.910
 5619SOL    HW128196   2.432   3.504   0.919
 5619SOL    HW228197   2.410   3.351   0.868
 5620SOL     OW28198   1.902   2.406   1.114
 5620SOL    HW128199   1.987   2.373   1.073
 5620SOL    HW228200   1.915   2.421   1.212
 5621SOL     OW28201   2.114   3.426   1.744
 5621SOL    HW128202   2.084   3.483   1.820
 5621SOL    HW228203   2.107   3.329   1.770
 5622SOL     OW28204   2.533   2.326   1.269
 5622SOL    HW128205   2.499   2.237   1.239
 5622SOL    HW228206   2.559   2.380   1.189
 5623SOL     OW28207   2.792   3.540   1.465
 5623SOL    HW128208   2.768   3.522   1.370
 5623SOL    HW228209   2.822   3.634   1.475
 5624SOL     OW28210   2.335   2.362   0.191
 5624SOL    HW128211   2.396   2.442   0.195
 5624SOL    HW228212   2.240   2.393   0.198
 5625SOL     OW28213   2.021   2.999   1.466
 5625SOL    HW128214   2.043   2.938   1.542
 5625SOL    HW228215   2.031   2.950   1.380
 5626SOL     OW28216   3.621   3.609   1.154
 5626SOL    HW128217   3.682   3.639   1.081
 5626SOL    HW228218   3.583   3.520   1.132
 5627SOL     OW28219   3.114   3.593   1.128
 5627SOL    HW128220   3.198   3.598   1.074
 5627SOL    HW228221   3.091   3.497   1.146
 5628SOL     OW28222   1.945   3.120   1.022
 5628SOL    HW128223   1.940   3.119   1.122
 5628SOL    HW228224   1.862   3.079   0.984
 5629SOL     OW28225   2.550   3.524   1.716
 5629SOL    HW128226   2.494   3.605   1.725
 5629SOL    HW228227   2.602   3.528   1.630
 5630SOL     OW28228   2.765   1.948   0.133
 5630SOL    HW128229   2.816   1.949   0.047
 5630SOL    HW228230   2.821   1.906   0.204
 5631SOL     OW28231   3.250   3.435   0.477
 5631SOL    HW128232   3.317   3.447   0.403
 5631SOL    HW228233   3.210   3.524   0.500
 5632SOL     OW28234   1.992   3.656   1.851
 5632SOL    HW128235   1.951   3.582   1.904
 5632SOL    HW228236   2.056   3.707   1.909
 5633SOL     OW28237   3.142   2.789   0.672
 5633SOL    HW128238   3.202   2.708   0.674
 5633SOL    HW228239   3.182   2.858   0.612
 5634SOL     OW28240   2.692   3.135   1.422
 5634SOL    HW128241   2.687   3.168   1.517
 5634SOL    HW228242   2.606   3.154   1.376
 5635SOL     OW28243   3.512   3.582   1.394
 5635SOL    HW128244   3.565   3.592   1.310
 5635SOL    HW228245   3.485   3.672   1.428
 5636SOL     OW28246   3.056   3.474   0.031
 5636SOL    HW128247   3.062   3.381   0.068
 5636SOL    HW228248   2.997   3.474  -0.049
 5637SOL     OW28249   2.684   2.864   1.372
 5637SOL    HW128250   2.724   2.863   1.280
 5637SOL    HW228251   2.694   2.956   1.412
 5638SOL     OW28252   2.778   2.772   0.291
 5638SOL    HW128253   2.841   2.810   0.223
 5638SOL    HW228254   2.818   2.689   0.330
 5639SOL     OW28255   3.366   3.469   0.044
 5639SOL    HW128256   3.274   3.506   0.051
 5639SOL    HW228257   3.404   3.489  -0.046
 5640SOL     OW28258   2.234   3.150   1.490
 5640SOL    HW128259   2.221   3.243   1.456
 5640SOL    HW228260   2.150   3.098   1.477
 5641SOL     OW28261   3.476   3.154   1.289
 5641SOL    HW128262   3.536   3.157   1.369
 5641SOL    HW228263   3.401   3.218   1.302
 5642SOL     OW28264   1.967   2.875   1.726
 5642SOL    HW128265   1.890   2.842   1.780
 5642SOL    HW228266   2.052   2.845   1.768
 5643SOL     OW28267   3.045   3.197   0.119
 5643SOL    HW128268   2.946   3.186   0.121
 5643SOL    HW228269   3.079   3.212   0.212
 5644SOL     OW28270   2.475   2.704   1.431
 5644SOL    HW128271   2.531   2.785   1.414
 5644SOL    HW228272   2.534   2.624   1.434
 5645SOL     OW28273   3.355   3.629   0.959
 5645SOL    HW128274   3.388   3.693   0.890
 5645SOL    HW228275   3.421   3.623   1.034
 5646SOL     OW28276   2.578   2.427   1.708
 5646SOL    HW128277   2.597   2.492   1.782
 5646SOL    HW228278   2.638   2.347   1.717
 5647SOL     OW28279   3.312   3.082   1.633
 5647SOL    HW128280   3.303   3.072   1.732
 5647SOL    HW228281   3.408   3.075   1.607
 5648SOL     OW28282   2.252   3.603   1.560
 5648SOL    HW128283   2.161   3.644   1.558
 5648SOL    HW228284   2.245   3.509   1.592
 5649SOL     OW28285   3.639   2.204   1.642
 5649SOL    HW128286   3.622   2.235   1.548
 5649SOL    HW228287   3.555   2.167   1.680
 5650SOL     OW28288   3.592   2.796   1.517
 5650SOL    HW128289   3.630   2.887   1.532
 5650SOL    HW228290   3.584   2.779   1.418
 5651SOL     OW28291   2.721   3.236   0.016
 5651SOL    HW128292   2.675   3.251   0.104
 5651SOL    HW228293   2.765   3.321  -0.014
 5652SOL     OW28294   2.523   3.652   0.953
 5652SOL    HW128295   2.477   3.740   0.940
 5652SOL    HW228296   2.622   3.664   0.946
 5653SOL     OW28297   2.945   2.846   0.087
 5653SOL    HW128298   2.922   2.899   0.005
 5653SOL    HW228299   3.026   2.790   0.068
 5654SOL     OW28300   3.723   3.431   0.851
 5654SOL    HW128301   3.652   3.419   0.781
 5654SOL    HW228302   3.724   3.352   0.911
 5655SOL     OW28303   2.083   3.176   1.844
 5655SOL    HW128304   2.018   3.103   1.823
 5655SOL    HW228305   2.087   3.190   1.942
 5656SOL     OW28306   1.941   3.102   0.653
 5656SOL    HW128307   1.940   3.055   0.741
 5656SOL    HW228308   2.023   3.074   0.602
 5657SOL     OW28309   2.534   3.253   1.624
 5657SOL    HW128310   2.456   3.203   1.662
 5657SOL    HW228311   2.531   3.348   1.655
 5658SOL     OW28312   2.290   2.286   0.520
 5658SOL    HW128313   2.320   2.214   0.458
 5658SOL    HW228314   2.251   2.246   0.603
 5659SOL     OW28315   3.567   3.349   1.104
 5659SOL    HW128316   3.474   3.324   1.077
 5659SOL    HW228317   3.593   3.299   1.186
 5660SOL     OW28318   2.480   3.429   1.284
 5660SOL    HW128319   2.475   3.511   1.341
 5660SOL    HW228320   2.569   3.426   1.239
 5661SOL     OW28321   3.162   2.315   0.691
 5661SOL    HW128322   3.103   2.395   0.695
 5661SOL    HW228323   3.177   2.280   0.784
 5662SOL     OW28324   3.455   2.083   0.882
 5662SOL    HW128325   3.371   2.082   0.936
 5662SOL    HW228326   3.457   2.166   0.826
 5663SOL     OW28327   2.087   2.137   2.858
 5663SOL    HW128328   2.122   2.120   2.950
 5663SOL    HW228329   1.999   2.092   2.846
 5664SOL     OW28330   1.881   2.230   2.509
 5664SOL    HW128331   1.799   2.273   2.548
 5664SOL    HW228332   1.853   2.157   2.446
 5665SOL     OW28333   2.431   3.137   3.027
 5665SOL    HW128334   2.338   3.130   2.990
 5665SOL    HW228335   2.442   3.226   3.071
 5666SOL     OW28336   3.417   3.373   2.565
 5666SOL    HW128337   3.360   3.357   2.646
 5666SOL    HW228338   3.358   3.383   2.485
 5667SOL     OW28339   2.997   2.565   2.579
 5667SOL    HW128340   3.054   2.643   2.554
 5667SOL    HW228341   2.937   2.591   2.655
 5668SOL     OW28342   3.617   2.469   2.093
 5668SOL    HW128343   3.605   2.456   1.994
 5668SOL    HW228344   3.587   2.388   2.142
 5669SOL     OW28345   2.630   3.006   2.885
 5669SOL    HW128346   2.552   3.023   2.945
 5669SOL    HW228347   2.664   3.093   2.849
 5670SOL     OW28348   2.712   2.660   3.685
 5670SOL    HW128349   2.708   2.736   3.750
 5670SOL    HW228350   2.734   2.696   3.594
 5671SOL     OW28351   2.547   2.874   2.527
 5671SOL    HW128352   2.616   2.858   2.597
 5671SOL    HW228353   2.474   2.931   2.565
 5672SOL     OW28354   2.548   3.023   3.665
 5672SOL    HW128355   2.608   3.102   3.679
 5672SOL    HW228356   2.462   3.054   3.624
 5673SOL     OW28357   2.197   3.297   2.923
 5673SOL    HW128358   2.119   3.266   2.870
 5673SOL    HW228359   2.255   3.355   2.866
 5674SOL     OW28360   3.322   3.367   3.201
 5674SOL    HW128361   3.346   3.461   3.227
 5674SOL    HW228362   3.306   3.313   3.283
 5675SOL     OW28363   2.300   2.254   3.361
 5675SOL    HW128364   2.382   2.198   3.370
 5675SOL    HW228365   2.219   2.196   3.365
 5676SOL     OW28366   3.465   2.309   2.599
 5676SOL    HW128367   3.391   2.355   2.549
 5676SOL    HW228368   3.516   2.377   2.652
 5677SOL     OW28369   2.093   3.575   2.345
 5677SOL    HW128370   2.127   3.652   2.399
 5677SOL    HW228371   2.137   3.575   2.255
 5678SOL     OW28372   2.989   3.203   3.552
 5678SOL    HW128373   3.036   3.203   3.640
 5678SOL    HW228374   2.941   3.116   3.541
 5679SOL     OW28375   2.092   3.296   2.400
 5679SOL    HW128376   2.066   3.392   2.400
 5679SOL    HW228377   2.021   3.242   2.445
 5680SOL     OW28378   2.102   2.953   2.748
 5680SOL    HW128379   2.116   2.869   2.800
 5680SOL    HW228380   2.047   3.017   2.803
 5681SOL     OW28381   2.482   3.648   3.301
 5681SOL    HW128382   2.390   3.631   3.336
 5681SOL    HW228383   2.510   3.740   3.327
 5682SOL     OW28384   2.468   2.826   1.985
 5682SOL    HW128385   2.475   2.910   1.931
 5682SOL    HW228386   2.514   2.839   2.073
 5683SOL     OW28387   3.456   1.976   3.342
 5683SOL    HW128388   3.438   2.043   3.270
 5683SOL    HW228389   3.453   2.022   3.431
 5684SOL     OW28390   1.984   2.505   2.425
 5684SOL    HW128391   1.939   2.417   2.442
 5684SOL    HW228392   1.983   2.559   2.509
 5685SOL     OW28393   3.704   3.629   2.221
 5685SOL    HW128394   3.758   3.600   2.301
 5685SOL    HW228395   3.734   3.719   2.192
 5686SOL     OW28396   1.889   3.458   1.979
 5686SOL    HW128397   1.870   3.362   2.000
 5686SOL    HW228398   1.856   3.516   2.054
 5687SOL     OW28399   3.551   2.784   2.474
 5687SOL    HW128400   3.646   2.755   2.482
 5687SOL    HW228401   3.543   2.849   2.399
 5688SOL     OW28402   1.975   2.599   3.459
 5688SOL    HW128403   2.063   2.586   3.504
 5688SOL    HW228404   1.962   2.696   3.437
 5689SOL     OW28405   2.475   3.227   2.588
 5689SOL    HW128406   2.426   3.140   2.597
 5689SOL    HW228407   2.452   3.270   2.501
 5690SOL     OW28408   3.155   3.090   3.285
 5690SOL    HW128409   3.192   3.017   3.227
 5690SOL    HW228410   3.207   3.095   3.370
 5691SOL     OW28411   2.671   1.866   2.364
 5691SOL    HW128412   2.711   1.957   2.355
 5691SOL    HW228413   2.571   1.874   2.370
 5692SOL     OW28414   2.059   2.838   3.126
 5692SOL    HW128415   2.148   2.793   3.112
 5692SOL    HW228416   1.986   2.773   3.107
 5693SOL     OW28417   3.049   3.654   3.478
 5693SOL    HW128418   3.073   3.714   3.402
 5693SOL    HW228419   3.056   3.559   3.448
 5694SOL     OW28420   2.179   2.113   3.663
 5694SOL    HW128421   2.250   2.184   3.669
 5694SOL    HW228422   2.091   2.152   3.691
 5695SOL     OW28423   3.328   3.279   2.815
 5695SOL    HW128424   3.269   3.285   2.895
 5695SOL    HW228425   3.313   3.191   2.769
 5696SOL     OW28426   3.529   3.576   2.434
 5696SOL    HW128427   3.488   3.553   2.346
 5696SOL    HW228428   3.511   3.502   2.499
 5697SOL     OW28429   2.460   2.591   2.132
 5697SOL    HW128430   2.484   2.660   2.064
 5697SOL    HW228431   2.382   2.624   2.186
 5698SOL     OW28432   3.143   2.207   2.806
 5698SOL    HW128433   3.057   2.157   2.793
 5698SOL    HW228434   3.205   2.153   2.862
 5699SOL     OW28435   3.438   3.524   2.169
 5699SOL    HW128436   3.527   3.570   2.172
 5699SOL    HW228437   3.417   3.500   2.074
 5700SOL     OW28438   2.669   2.467   3.327
 5700SOL    HW128439   2.622   2.464   3.416
 5700SOL    HW228440   2.618   2.412   3.261
 5701SOL     OW28441   3.256   2.331   3.536
 5701SOL    HW128442   3.236   2.374   3.624
 5701SOL    HW228443   3.334   2.269   3.545
 5702SOL     OW28444   2.835   2.752   3.434
 5702SOL    HW128445   2.881   2.668   3.405
 5702SOL    HW228446   2.779   2.786   3.359
 5703SOL     OW28447   2.853   2.272   3.104
 5703SOL    HW128448   2.776   2.306   3.158
 5703SOL    HW228449   2.819   2.221   3.025
 5704SOL     OW28450   2.903   2.563   2.291
 5704SOL    HW128451   2.929   2.559   2.387
 5704SOL    HW228452   2.818   2.512   2.277
 5705SOL     OW28453   1.938   2.673   2.651
 5705SOL    HW128454   2.037   2.661   2.660
 5705SOL    HW228455   1.914   2.768   2.672
 5706SOL     OW28456   1.992   3.683   3.433
 5706SOL    HW128457   1.982   3.668   3.532
 5706SOL    HW228458   1.906   3.719   3.397
 5707SOL     OW28459   2.727   2.210   2.057
 5707SOL    HW128460   2.786   2.273   2.008
 5707SOL    HW228461   2.746   2.116   2.028
 5708SOL     OW28462   3.581   2.447   3.693
 5708SOL    HW128463   3.555   2.536   3.657
 5708SOL    HW228464   3.579   2.379   3.620
 5709SOL     OW28465   3.224   3.006   2.407
 5709SOL    HW128466   3.307   2.977   2.359
 5709SOL    HW228467   3.175   3.073   2.351
 5710SOL     OW28468   2.412   2.058   2.747
 5710SOL    HW128469   2.407   2.053   2.847
 5710SOL    HW228470   2.414   2.154   2.718
 5711SOL     OW28471   2.870   3.318   2.339
 5711SOL    HW128472   2.824   3.390   2.287
 5711SOL    HW228473   2.866   3.338   2.437
 5712SOL     OW28474   2.213   3.663   2.715
 5712SOL    HW128475   2.263   3.577   2.721
 5712SOL    HW228476   2.278   3.740   2.712
 5713SOL     OW28477   3.657   2.928   2.735
 5713SOL    HW128478   3.595   2.913   2.659
 5713SOL    HW228479   3.605   2.939   2.820
 5714SOL     OW28480   3.089   3.412   3.368
 5714SOL    HW128481   3.095   3.335   3.432
 5714SOL    HW228482   3.037   3.386   3.288
 5715SOL     OW28483   2.183   2.805   2.104
 5715SOL    HW128484   2.265   2.844   2.062
 5715SOL    HW228485   2.156   2.723   2.055
 5716SOL     OW28486   3.320   2.597   2.590
 5716SOL    HW128487   3.315   2.532   2.665
 5716SOL    HW228488   3.400   2.656   2.603
 5717SOL     OW28489   2.323   3.128   3.589
 5717SOL    HW128490   2.273   3.129   3.503
 5717SOL    HW228491   2.260   3.110   3.665
 5718SOL     OW28492   2.973   3.638   2.099
 5718SOL    HW128493   2.913   3.576   2.149
 5718SOL    HW228494   3.004   3.594   2.014
 5719SOL     OW28495   2.064   2.147   3.360
 5719SOL    HW128496   1.984   2.207   3.347
 5719SOL    HW228497   2.054   2.098   3.446
 5720SOL     OW28498   3.494   3.239   1.943
 5720SOL    HW128499   3.462   3.333   1.933
 5720SOL    HW228500   3.418   3.176   1.931
 5721SOL     OW28501   2.326   3.605   2.185
 5721SOL    HW128502   2.359   3.644   2.271
 5721SOL    HW228503   2.402   3.598   2.120
 5722SOL     OW28504   3.262   1.969   2.288
 5722SOL    HW128505   3.238   1.932   2.198
 5722SOL    HW228506   3.361   1.985   2.292
 5723SOL     OW28507   2.111   3.647   3.103
 5723SOL    HW128508   2.168   3.582   3.153
 5723SOL    HW228509   2.095   3.614   3.010
 5724SOL     OW28510   2.802   3.560   2.766
 5724SOL    HW128511   2.882   3.503   2.787
 5724SOL    HW228512   2.753   3.520   2.689
 5725SOL     OW28513   2.244   2.562   2.342
 5725SOL    HW128514   2.289   2.472   2.339
 5725SOL    HW228515   2.150   2.551   2.375
 5726SOL     OW28516   3.409   2.084   3.591
 5726SOL    HW128517   3.404   2.121   3.683
 5726SOL    HW228518   3.337   2.015   3.579
 5727SOL     OW28519   2.476   1.984   1.979
 5727SOL    HW128520   2.574   1.962   1.986
 5727SOL    HW228521   2.445   1.967   1.886
 5728SOL     OW28522   2.643   2.126   3.611
 5728SOL    HW128523   2.710   2.065   3.654
 5728SOL    HW228524   2.570   2.145   3.676
 5729SOL     OW28525   2.750   3.376   3.057
 5729SOL    HW128526   2.727   3.351   2.963
 5729SOL    HW228527   2.811   3.307   3.096
 5730SOL     OW28528   3.213   2.452   3.295
 5730SOL    HW128529   3.241   2.409   3.380
 5730SOL    HW228530   3.238   2.548   3.296
 5731SOL     OW28531   2.665   3.264   2.786
 5731SOL    HW128532   2.755   3.278   2.744
 5731SOL    HW228533   2.594   3.266   2.715
 5732SOL     OW28534   2.784   2.365   2.761
 5732SOL    HW128535   2.759   2.356   2.665
 5732SOL    HW228536   2.832   2.283   2.792
 5733SOL     OW28537   2.401   1.926   2.374
 5733SOL    HW128538   2.320   1.927   2.432
 5733SOL    HW228539   2.404   2.009   2.319
 5734SOL     OW28540   2.159   1.897   2.033
 5734SOL    HW128541   2.208   1.981   2.012
 5734SOL    HW228542   2.221   1.832   2.078
 5735SOL     OW28543   2.797   2.098   2.342
 5735SOL    HW128544   2.749   2.139   2.264
 5735SOL    HW228545   2.896   2.096   2.323
 5736SOL     OW28546   2.938   2.545   3.326
 5736SOL    HW128547   2.858   2.484   3.329
 5736SOL    HW228548   3.019   2.492   3.302
 5737SOL     OW28549   3.089   3.432   2.655
 5737SOL    HW128550   3.110   3.506   2.590
 5737SOL    HW228551   3.157   3.432   2.728
 5738SOL     OW28552   2.321   3.014   2.603
 5738SOL    HW128553   2.250   2.987   2.668
 5738SOL    HW228554   2.295   2.986   2.510
 5739SOL     OW28555   3.133   3.659   2.453
 5739SOL    HW128556   3.177   3.723   2.389
 5739SOL    HW228557   3.083   3.711   2.523
 5740SOL     OW28558   2.894   2.411   1.878
 5740SOL    HW128559   2.853   2.493   1.839
 5740SOL    HW228560   2.958   2.437   1.951
 5741SOL     OW28561   1.940   2.418   3.248
 5741SOL    HW128562   2.032   2.417   3.207
 5741SOL    HW228563   1.934   2.492   3.315
 5742SOL     OW28564   2.423   2.084   3.009
 5742SOL    HW128565   2.461   2.000   3.046
 5742SOL    HW228566   2.335   2.103   3.053
 5743SOL     OW28567   2.728   2.316   2.504
 5743SOL    HW128568   2.696   2.388   2.442
 5743SOL    HW228569   2.752   2.235   2.451
 5744SOL     OW28570   2.879   1.901   2.615
 5744SOL    HW128571   2.807   1.906   2.546
 5744SOL    HW228572   2.855   1.832   2.684
 5745SOL     OW28573   3.291   3.035   2.729
 5745SOL    HW128574   3.236   2.951   2.722
 5745SOL    HW228575   3.317   3.064   2.637
 5746SOL     OW28576   3.328   2.452   2.854
 5746SOL    HW128577   3.298   2.357   2.861
 5746SOL    HW228578   3.401   2.468   2.920
 5747SOL     OW28579   3.719   2.695   2.239
 5747SOL    HW128580   3.761   2.631   2.303
 5747SOL    HW228581   3.681   2.644   2.161
 5748SOL     OW28582   2.350   3.247   2.036
 5748SOL    HW128583   2.263   3.232   2.083
 5748SOL    HW228584   2.333   3.273   1.941
 5749SOL     OW28585   3.526   3.142   2.519
 5749SOL    HW128586   3.625   3.150   2.533
 5749SOL    HW228587   3.481   3.226   2.550
 5750SOL     OW28588   3.252   2.437   1.940
 5750SOL    HW128589   3.198   2.416   2.021
 5750SOL    HW228590   3.343   2.396   1.949
 5751SOL     OW28591   2.389   2.118   2.190
 5751SOL    HW128592   2.416   2.059   2.115
 5751SOL    HW228593   2.389   2.213   2.159
 5752SOL     OW28594   3.616   3.085   3.450
 5752SOL    HW128595   3.707   3.046   3.437
 5752SOL    HW228596   3.624   3.181   3.474
 5753SOL     OW28597   2.926   3.209   3.202
 5753SOL    HW128598   2.846   3.186   3.257
 5753SOL    HW228599   3.009   3.183   3.251
 5754SOL     OW28600   3.454   3.491   3.487
 5754SOL    HW128601   3.481   3.525   3.397
 5754SOL    HW228602   3.533   3.453   3.533
 5755SOL     OW28603   2.973   3.057   2.962
 5755SOL    HW128604   2.933   3.101   3.043
 5755SOL    HW228605   2.932   3.094   2.879
 5756SOL     OW28606   3.500   2.961   2.941
 5756SOL    HW128607   3.505   3.042   3.000
 5756SOL    HW228608   3.414   2.963   2.890
 5757SOL     OW28609   2.777   1.951   3.264
 5757SOL    HW128610   2.802   1.931   3.169
 5757SOL    HW228611   2.849   2.007   3.306
 5758SOL     OW28612   2.842   2.978   3.581
 5758SOL    HW128613   2.743   2.984   3.591
 5758SOL    HW228614   2.865   2.898   3.525
 5759SOL     OW28615   2.567   2.912   2.230
 5759SOL    HW128616   2.553   2.919   2.329
 5759SOL    HW228617   2.651   2.861   2.212
 5760SOL     OW28618   2.272   2.675   3.113
 5760SOL    HW128619   2.358   2.687   3.163
 5760SOL    HW228620   2.230   2.588   3.140
 5761SOL     OW28621   3.136   2.248   3.124
 5761SOL    HW128622   3.157   2.322   3.188
 5761SOL    HW228623   3.047   2.265   3.081
 5762SOL     OW28624   1.926   3.426   3.193
 5762SOL    HW128625   1.880   3.508   3.159
 5762SOL    HW228626   2.024   3.445   3.202
 5763SOL     OW28627   2.229   2.962   2.363
 5763SOL    HW128628   2.222   3.045   2.307
 5763SOL    HW228629   2.233   2.882   2.303
 5764SOL     OW28630   2.428   2.399   2.727
 5764SOL    HW128631   2.440   2.465   2.653
 5764SOL    HW228632   2.474   2.433   2.810
 5765SOL     OW28633   3.114   3.210   2.250
 5765SOL    HW128634   3.164   3.287   2.290
 5765SOL    HW228635   3.019   3.212   2.282
 5766SOL     OW28636   3.134   3.307   3.004
 5766SOL    HW128637   3.181   3.320   3.091
 5766SOL    HW228638   3.068   3.233   3.013
 5767SOL     OW28639   3.444   2.501   2.334
 5767SOL    HW128640   3.413   2.562   2.407
 5767SOL    HW228641   3.494   2.553   2.265
 5768SOL     OW28642   2.216   3.372   3.191
 5768SOL    HW128643   2.195   3.328   3.104
 5768SOL    HW228644   2.313   3.398   3.194
 5769SOL     OW28645   2.264   2.613   3.460
 5769SOL    HW128646   2.332   2.668   3.413
 5769SOL    HW228647   2.304   2.525   3.487
 5770SOL     OW28648   3.449   2.641   3.532
 5770SOL    HW128649   3.357   2.679   3.527
 5770SOL    HW228650   3.509   2.688   3.467
 5771SOL     OW28651   2.875   1.967   3.632
 5771SOL    HW128652   2.881   2.052   3.580
 5771SOL    HW228653   2.907   1.891   3.575
 5772SOL     OW28654   2.366   1.912   3.602
 5772SOL    HW128655   2.324   1.855   3.532
 5772SOL    HW228656   2.300   1.981   3.634
 5773SOL     OW28657   2.435   2.732   2.891
 5773SOL    HW128658   2.479   2.821   2.882
 5773SOL    HW228659   2.372   2.732   2.968
 5774SOL     OW28660   3.222   2.724   2.907
 5774SOL    HW128661   3.147   2.724   2.841
 5774SOL    HW228662   3.259   2.632   2.916
 5775SOL     OW28663   3.071   2.387   2.137
 5775SOL    HW128664   3.084   2.303   2.191
 5775SOL    HW228665   3.042   2.461   2.197
 5776SOL     OW28666   2.169   2.075   3.093
 5776SOL    HW128667   2.146   2.112   3.183
 5776SOL    HW228668   2.139   1.980   3.087
 5777SOL     OW28669   1.899   3.172   3.144
 5777SOL    HW128670   1.952   3.123   3.212
 5777SOL    HW228671   1.921   3.270   3.149
 5778SOL     OW28672   2.594   2.496   2.926
 5778SOL    HW128673   2.653   2.470   2.850
 5778SOL    HW228674   2.566   2.592   2.915
 5779SOL     OW28675   3.590   2.797   3.716
 5779SOL    HW128676   3.544   2.790   3.627
 5779SOL    HW228677   3.528   2.841   3.782
 5780SOL     OW28678   2.169   1.925   2.480
 5780SOL    HW128679   2.158   2.019   2.513
 5780SOL    HW228680   2.164   1.862   2.557
 5781SOL     OW28681   3.484   2.229   2.236
 5781SOL    HW128682   3.486   2.153   2.300
 5781SOL    HW228683   3.436   2.306   2.276
 5782SOL     OW28684   2.885   2.628   2.828
 5782SOL    HW128685   2.900   2.649   2.924
 5782SOL    HW228686   2.855   2.533   2.819
 5783SOL     OW28687   2.842   3.435   3.562
 5783SOL    HW128688   2.822   3.479   3.474
 5783SOL    HW228689   2.881   3.344   3.546
 5784SOL     OW28690   3.721   3.380   3.467
 5784SOL    HW128691   3.735   3.407   3.372
 5784SOL    HW228692   3.804   3.402   3.520
 5785SOL     OW28693   2.212   2.760   3.666
 5785SOL    HW128694   2.288   2.804   3.714
 5785SOL    HW228695   2.247   2.713   3.584
 5786SOL     OW28696   3.402   2.136   1.987
 5786SOL    HW128697   3.341   2.061   2.010
 5786SOL    HW228698   3.424   2.188   2.070
 5787SOL     OW28699   2.930   3.195   2.711
 5787SOL    HW128700   2.937   3.111   2.656
 5787SOL    HW228701   2.992   3.264   2.675
 5788SOL     OW28702   2.181   2.672   2.811
 5788SOL    HW128703   2.274   2.708   2.816
 5788SOL    HW228704   2.175   2.587   2.863
 5789SOL     OW28705   2.201   2.371   2.868
 5789SOL    HW128706   2.149   2.288   2.851
 5789SOL    HW228707   2.278   2.376   2.804
 5790SOL     OW28708   3.000   2.242   3.540
 5790SOL    HW128709   2.955   2.305   3.604
 5790SOL    HW228710   3.093   2.273   3.523
 5791SOL     OW28711   3.022   2.069   3.339
 5791SOL    HW128712   3.022   2.133   3.416
 5791SOL    HW228713   3.050   2.117   3.256
 5792SOL     OW28714   1.870   3.188   2.062
 5792SOL    HW128715   1.777   3.209   2.031
 5792SOL    HW228716   1.880   3.089   2.075
 5793SOL     OW28717   1.950   3.663   2.789
 5793SOL    HW128718   1.908   3.577   2.762
 5793SOL    HW228719   2.044   3.666   2.755
 5794SOL     OW28720   2.366   3.430   2.772
 5794SOL    HW128721   2.432   3.504   2.781
 5794SOL    HW228722   2.410   3.351   2.730
 5795SOL     OW28723   2.864   2.658   3.100
 5795SOL    HW128724   2.905   2.626   3.186
 5795SOL    HW228725   2.768   2.631   3.097
 5796SOL     OW28726   1.902   2.406   2.976
 5796SOL    HW128727   1.987   2.373   2.935
 5796SOL    HW228728   1.915   2.421   3.074
 5797SOL     OW28729   2.051   2.382   3.584
 5797SOL    HW128730   2.110   2.342   3.514
 5797SOL    HW228731   1.993   2.453   3.543
 5798SOL     OW28732   3.231   2.812   3.522
 5798SOL    HW128733   3.270   2.901   3.542
 5798SOL    HW228734   3.241   2.792   3.425
 5799SOL     OW28735   2.677   2.434   2.187
 5799SOL    HW128736   2.684   2.345   2.141
 5799SOL    HW228737   2.583   2.468   2.179
 5800SOL     OW28738   3.519   2.466   3.068
 5800SOL    HW128739   3.481   2.397   3.130
 5800SOL    HW228740   3.601   2.430   3.024
 5801SOL     OW28741   2.114   3.426   3.606
 5801SOL    HW128742   2.084   3.483   3.682
 5801SOL    HW228743   2.107   3.329   3.632
 5802SOL     OW28744   2.533   2.326   3.131
 5802SOL    HW128745   2.499   2.237   3.101
 5802SOL    HW228746   2.559   2.380   3.051
 5803SOL     OW28747   2.792   3.540   3.327
 5803SOL    HW128748   2.768   3.522   3.232
 5803SOL    HW228749   2.822   3.634   3.337
 5804SOL     OW28750   2.335   2.362   2.053
 5804SOL    HW128751   2.396   2.442   2.057
 5804SOL    HW228752   2.240   2.393   2.060
 5805SOL     OW28753   2.021   2.999   3.328
 5805SOL    HW128754   2.043   2.938   3.404
 5805SOL    HW228755   2.031   2.950   3.242
 5806SOL     OW28756   3.209   2.921   3.096
 5806SOL    HW128757   3.233   2.858   3.022
 5806SOL    HW228758   3.119   2.961   3.078
 5807SOL     OW28759   3.164   2.717   2.171
 5807SOL    HW128760   3.078   2.686   2.213
 5807SOL    HW228761   3.160   2.703   2.072
 5808SOL     OW28762   3.621   3.609   3.016
 5808SOL    HW128763   3.682   3.639   2.943
 5808SOL    HW228764   3.583   3.520   2.994
 5809SOL     OW28765   3.114   3.593   2.990
 5809SOL    HW128766   3.198   3.598   2.936
 5809SOL    HW228767   3.091   3.497   3.008
 5810SOL     OW28768   1.945   3.120   2.884
 5810SOL    HW128769   1.940   3.119   2.984
 5810SOL    HW228770   1.862   3.079   2.846
 5811SOL     OW28771   2.550   3.524   3.578
 5811SOL    HW128772   2.494   3.605   3.587
 5811SOL    HW228773   2.602   3.528   3.492
 5812SOL     OW28774   3.588   1.997   2.385
 5812SOL    HW128775   3.661   1.980   2.318
 5812SOL    HW228776   3.557   1.910   2.423
 5813SOL     OW28777   3.250   3.435   2.339
 5813SOL    HW128778   3.317   3.447   2.265
 5813SOL    HW228779   3.210   3.524   2.362
 5814SOL     OW28780   1.992   3.656   3.713
 5814SOL    HW128781   1.951   3.582   3.766
 5814SOL    HW228782   2.056   3.707   3.771
 5815SOL     OW28783   3.142   2.789   2.534
 5815SOL    HW128784   3.202   2.708   2.536
 5815SOL    HW228785   3.182   2.858   2.474
 5816SOL     OW28786   2.692   3.135   3.284
 5816SOL    HW128787   2.687   3.168   3.379
 5816SOL    HW228788   2.606   3.154   3.238
 5817SOL     OW28789   2.534   3.478   2.016
 5817SOL    HW128790   2.543   3.488   1.917
 5817SOL    HW228791   2.494   3.389   2.037
 5818SOL     OW28792   3.512   3.582   3.256
 5818SOL    HW128793   3.565   3.592   3.172
 5818SOL    HW228794   3.485   3.672   3.290
 5819SOL     OW28795   3.703   2.037   2.825
 5819SOL    HW128796   3.742   1.952   2.789
 5819SOL    HW228797   3.605   2.039   2.806
 5820SOL     OW28798   2.125   2.188   2.582
 5820SOL    HW128799   2.046   2.239   2.548
 5820SOL    HW228800   2.116   2.173   2.680
 5821SOL     OW28801   3.056   3.474   1.893
 5821SOL    HW128802   3.062   3.381   1.930
 5821SOL    HW228803   2.997   3.474   1.813
 5822SOL     OW28804   2.684   2.864   3.234
 5822SOL    HW128805   2.724   2.863   3.142
 5822SOL    HW228806   2.694   2.956   3.274
 5823SOL     OW28807   2.778   2.772   2.153
 5823SOL    HW128808   2.841   2.810   2.085
 5823SOL    HW228809   2.818   2.689   2.192
 5824SOL     OW28810   3.366   3.469   1.906
 5824SOL    HW128811   3.274   3.506   1.913
 5824SOL    HW228812   3.404   3.489   1.816
 5825SOL     OW28813   2.234   3.150   3.352
 5825SOL    HW128814   2.221   3.243   3.318
 5825SOL    HW228815   2.150   3.098   3.339
 5826SOL     OW28816   3.476   3.154   3.151
 5826SOL    HW128817   3.536   3.157   3.231
 5826SOL    HW228818   3.401   3.218   3.164
 5827SOL     OW28819   2.901   2.960   2.558
 5827SOL    HW128820   2.831   2.913   2.612
 5827SOL    HW228821   2.960   2.892   2.515
 5828SOL     OW28822   2.876   2.098   2.833
 5828SOL    HW128823   2.868   2.062   2.740
 5828SOL    HW228824   2.874   2.022   2.898
 5829SOL     OW28825   2.452   3.349   2.353
 5829SOL    HW128826   2.494   3.291   2.283
 5829SOL    HW228827   2.408   3.428   2.309
 5830SOL     OW28828   3.571   2.247   3.243
 5830SOL    HW128829   3.644   2.316   3.247
 5830SOL    HW228830   3.599   2.172   3.184
 5831SOL     OW28831   2.117   3.210   2.152
 5831SOL    HW128832   2.021   3.211   2.125
 5831SOL    HW228833   2.129   3.263   2.236
 5832SOL     OW28834   1.967   2.875   3.588
 5832SOL    HW128835   1.890   2.842   3.642
 5832SOL    HW228836   2.052   2.845   3.630
 5833SOL     OW28837   2.534   2.065   3.351
 5833SOL    HW128838   2.624   2.049   3.311
 5833SOL    HW228839   2.542   2.070   3.450
 5834SOL     OW28840   3.302   2.718   3.260
 5834SOL    HW128841   3.245   2.770   3.197
 5834SOL    HW228842   3.398   2.730   3.236
 5835SOL     OW28843   1.934   2.028   2.180
 5835SOL    HW128844   1.917   2.111   2.126
 5835SOL    HW228845   2.024   1.991   2.158
 5836SOL     OW28846   3.045   3.197   1.981
 5836SOL    HW128847   2.946   3.186   1.983
 5836SOL    HW228848   3.079   3.212   2.074
 5837SOL     OW28849   2.475   2.704   3.293
 5837SOL    HW128850   2.531   2.785   3.276
 5837SOL    HW228851   2.534   2.624   3.296
 5838SOL     OW28852   3.355   3.629   2.821
 5838SOL    HW128853   3.388   3.693   2.752
 5838SOL    HW228854   3.421   3.623   2.896
 5839SOL     OW28855   2.578   2.427   3.570
 5839SOL    HW128856   2.597   2.492   3.644
 5839SOL    HW228857   2.638   2.347   3.579
 5840SOL     OW28858   3.312   3.082   3.495
 5840SOL    HW128859   3.303   3.072   3.594
 5840SOL    HW228860   3.408   3.075   3.469
 5841SOL     OW28861   2.252   3.603   3.422
 5841SOL    HW128862   2.161   3.644   3.420
 5841SOL    HW228863   2.245   3.509   3.454
 5842SOL     OW28864   3.536   2.745   3.116
 5842SOL    HW128865   3.509   2.656   3.079
 5842SOL    HW228866   3.537   2.813   3.043
 5843SOL     OW28867   3.087   2.187   2.311
 5843SOL    HW128868   3.152   2.113   2.300
 5843SOL    HW228869   3.107   2.237   2.395
 5844SOL     OW28870   2.456   2.607   2.514
 5844SOL    HW128871   2.506   2.692   2.495
 5844SOL    HW228872   2.368   2.609   2.466
 5845SOL     OW28873   3.639   2.204   3.504
 5845SOL    HW128874   3.622   2.235   3.410
 5845SOL    HW228875   3.555   2.167   3.542
 5846SOL     OW28876   3.592   2.796   3.379
 5846SOL    HW128877   3.630   2.887   3.394
 5846SOL    HW228878   3.584   2.779   3.280
 5847SOL     OW28879   2.721   3.236   1.878
 5847SOL    HW128880   2.675   3.251   1.966
 5847SOL    HW228881   2.765   3.321   1.848
 5848SOL     OW28882   2.523   3.652   2.815
 5848SOL    HW128883   2.477   3.740   2.802
 5848SOL    HW228884   2.622   3.664   2.808
 5849SOL     OW28885   2.721   2.818   2.723
 5849SOL    HW128886   2.775   2.749   2.771
 5849SOL    HW228887   2.689   2.887   2.789
 5850SOL     OW28888   2.945   2.846   1.949
 5850SOL    HW128889   2.922   2.899   1.867
 5850SOL    HW228890   3.026   2.790   1.930
 5851SOL     OW28891   3.723   3.431   2.713
 5851SOL    HW128892   3.652   3.419   2.643
 5851SOL    HW228893   3.724   3.352   2.773
 5852SOL     OW28894   2.083   3.176   3.706
 5852SOL    HW128895   2.018   3.103   3.685
 5852SOL    HW228896   2.087   3.190   3.804
 5853SOL     OW28897   1.941   3.102   2.515
 5853SOL    HW128898   1.940   3.055   2.603
 5853SOL    HW228899   2.023   3.074   2.464
 5854SOL     OW28900   2.534   3.253   3.486
 5854SOL    HW128901   2.456   3.203   3.524
 5854SOL    HW228902   2.531   3.348   3.517
 5855SOL     OW28903   3.686   2.054   3.089
 5855SOL    HW128904   3.682   1.964   3.133
 5855SOL    HW228905   3.689   2.043   2.990
 5856SOL     OW28906   2.290   2.286   2.382
 5856SOL    HW128907   2.320   2.214   2.320
 5856SOL    HW228908   2.251   2.246   2.465
 5857SOL     OW28909   3.567   3.349   2.966
 5857SOL    HW128910   3.474   3.324   2.939
 5857SOL    HW228911   3.593   3.299   3.048
 5858SOL     OW28912   2.179   2.409   3.142
 5858SOL    HW128913   2.217   2.350   3.214
 5858SOL    HW228914   2.219   2.383   3.054
 5859SOL     OW28915   2.674   3.448   2.549
 5859SOL    HW128916   2.706   3.458   2.455
 5859SOL    HW228917   2.595   3.386   2.551
 5860SOL     OW28918   3.286   2.076   2.974
 5860SOL    HW128919   3.338   2.011   3.029
 5860SOL    HW228920   3.237   2.139   3.035
 5861SOL     OW28921   2.863   1.896   3.016
 5861SOL    HW128922   2.800   1.824   2.985
 5861SOL    HW228923   2.956   1.860   3.016
 5862SOL     OW28924   2.632   3.192   2.163
 5862SOL    HW128925   2.586   3.105   2.180
 5862SOL    HW228926   2.723   3.189   2.204
 5863SOL     OW28927   2.480   3.429   3.146
 5863SOL    HW128928   2.475   3.511   3.203
 5863SOL    HW228929   2.569   3.426   3.101
 5864SOL     OW28930   3.214   1.914   2.030
 5864SOL    HW128931   3.249   1.873   1.946
 5864SOL    HW228932   3.124   1.876   2.050
 5865SOL     OW28933   3.162   2.315   2.553
 5865SOL    HW128934   3.103   2.395   2.557
 5865SOL    HW228935   3.177   2.280   2.646
 5866SOL     OW28936   3.455   2.083   2.744
 5866SOL    HW128937   3.371   2.082   2.798
 5866SOL    HW228938   3.457   2.166   2.688
 5867SOL     OW28939   1.901   2.939   2.162
 5867SOL    HW128940   2.000   2.928   2.153
 5867SOL    HW228941   1.861   2.853   2.194
 5868SOL     OW28942   2.737   3.508   2.199
 5868SOL    HW128943   2.660   3.473   2.145
 5868SOL    HW228944   2.705   3.579   2.261
 5869SOL     OW28945   2.092   2.490   3.837
 5869SOL    HW128946   1.999   2.488   3.874
 5869SOL    HW228947   2.093   2.451   3.745
 5870SOL     OW28948   2.087   2.137   4.720
 5870SOL    HW128949   2.122   2.120   4.812
 5870SOL    HW228950   1.999   2.092   4.708
 5871SOL     OW28951   1.881   2.230   4.371
 5871SOL    HW128952   1.799   2.273   4.410
 5871SOL    HW228953   1.853   2.157   4.308
 5872SOL     OW28954   2.431   3.137   4.889
 5872SOL    HW128955   2.338   3.130   4.852
 5872SOL    HW228956   2.442   3.226   4.933
 5873SOL     OW28957   3.417   3.373   4.427
 5873SOL    HW128958   3.360   3.357   4.508
 5873SOL    HW228959   3.358   3.383   4.347
 5874SOL     OW28960   2.997   2.565   4.441
 5874SOL    HW128961   3.054   2.643   4.416
 5874SOL    HW228962   2.937   2.591   4.517
 5875SOL     OW28963   3.617   2.469   3.955
 5875SOL    HW128964   3.605   2.456   3.856
 5875SOL    HW228965   3.587   2.388   4.004
 5876SOL     OW28966   2.630   3.006   4.747
 5876SOL    HW128967   2.552   3.023   4.807
 5876SOL    HW228968   2.664   3.093   4.711
 5877SOL     OW28969   2.712   2.660   5.547
 5877SOL    HW128970   2.708   2.736   5.612
 5877SOL    HW228971   2.734   2.696   5.456
 5878SOL     OW28972   2.547   2.874   4.389
 5878SOL    HW128973   2.616   2.858   4.459
 5878SOL    HW228974   2.474   2.931   4.427
 5879SOL     OW28975   2.548   3.023   5.527
 5879SOL    HW128976   2.608   3.102   5.541
 5879SOL    HW228977   2.462   3.054   5.486
 5880SOL     OW28978   2.197   3.297   4.785
 5880SOL    HW128979   2.119   3.266   4.732
 5880SOL    HW228980   2.255   3.355   4.728
 5881SOL     OW28981   3.322   3.367   5.063
 5881SOL    HW128982   3.346   3.461   5.089
 5881SOL    HW228983   3.306   3.313   5.145
 5882SOL     OW28984   2.300   2.254   5.223
 5882SOL    HW128985   2.382   2.198   5.232
 5882SOL    HW228986   2.219   2.196   5.227
 5883SOL     OW28987   3.465   2.309   4.461
 5883SOL    HW128988   3.391   2.355   4.411
 5883SOL    HW228989   3.516   2.377   4.514
 5884SOL     OW28990   2.093   3.575   4.207
 5884SOL    HW128991   2.127   3.652   4.261
 5884SOL    HW228992   2.137   3.575   4.117
 5885SOL     OW28993   2.989   3.203   5.414
 5885SOL    HW128994   3.036   3.203   5.502
 5885SOL    HW228995   2.941   3.116   5.403
 5886SOL     OW28996   2.092   3.296   4.262
 5886SOL    HW128997   2.066   3.392   4.262
 5886SOL    HW228998   2.021   3.242   4.307
 5887SOL     OW28999   2.102   2.953   4.610
 5887SOL    HW129000   2.116   2.869   4.662
 5887SOL    HW229001   2.047   3.017   4.665
 5888SOL     OW29002   2.482   3.648   5.163
 5888SOL    HW129003   2.390   3.631   5.198
 5888SOL    HW229004   2.510   3.740   5.189
 5889SOL     OW29005   2.468   2.826   3.847
 5889SOL    HW129006   2.475   2.910   3.793
 5889SOL    HW229007   2.514   2.839   3.935
 5890SOL     OW29008   3.456   1.976   5.204
 5890SOL    HW129009   3.438   2.043   5.132
 5890SOL    HW229010   3.453   2.022   5.293
 5891SOL     OW29011   1.984   2.505   4.287
 5891SOL    HW129012   1.939   2.417   4.304
 5891SOL    HW229013   1.983   2.559   4.371
 5892SOL     OW29014   3.704   3.629   4.083
 5892SOL    HW129015   3.758   3.600   4.163
 5892SOL    HW229016   3.734   3.719   4.054
 5893SOL     OW29017   1.889   3.458   3.841
 5893SOL    HW129018   1.870   3.362   3.862
 5893SOL    HW229019   1.856   3.516   3.916
 5894SOL     OW29020   3.551   2.784   4.336
 5894SOL    HW129021   3.646   2.755   4.344
 5894SOL    HW229022   3.543   2.849   4.261
 5895SOL     OW29023   3.503   2.970   4.156
 5895SOL    HW129024   3.589   2.972   4.104
 5895SOL    HW229025   3.517   3.017   4.244
 5896SOL     OW29026   1.975   2.599   5.321
 5896SOL    HW129027   2.063   2.586   5.366
 5896SOL    HW229028   1.962   2.696   5.299
 5897SOL     OW29029   2.475   3.227   4.450
 5897SOL    HW129030   2.426   3.140   4.459
 5897SOL    HW229031   2.452   3.270   4.363
 5898SOL     OW29032   3.155   3.090   5.147
 5898SOL    HW129033   3.192   3.017   5.089
 5898SOL    HW229034   3.207   3.095   5.232
 5899SOL     OW29035   2.671   1.866   4.226
 5899SOL    HW129036   2.711   1.957   4.217
 5899SOL    HW229037   2.571   1.874   4.232
 5900SOL     OW29038   2.059   2.838   4.988
 5900SOL    HW129039   2.148   2.793   4.974
 5900SOL    HW229040   1.986   2.773   4.969
 5901SOL     OW29041   3.387   2.861   3.914
 5901SOL    HW129042   3.324   2.785   3.927
 5901SOL    HW229043   3.435   2.879   4.000
 5902SOL     OW29044   3.049   3.654   5.340
 5902SOL    HW129045   3.073   3.714   5.264
 5902SOL    HW229046   3.056   3.559   5.310
 5903SOL     OW29047   2.179   2.113   5.525
 5903SOL    HW129048   2.250   2.184   5.531
 5903SOL    HW229049   2.091   2.152   5.553
 5904SOL     OW29050   3.328   3.279   4.677
 5904SOL    HW129051   3.269   3.285   4.757
 5904SOL    HW229052   3.313   3.191   4.631
 5905SOL     OW29053   3.529   3.576   4.296
 5905SOL    HW129054   3.488   3.553   4.208
 5905SOL    HW229055   3.511   3.502   4.361
 5906SOL     OW29056   2.460   2.591   3.994
 5906SOL    HW129057   2.484   2.660   3.926
 5906SOL    HW229058   2.382   2.624   4.048
 5907SOL     OW29059   3.143   2.207   4.668
 5907SOL    HW129060   3.057   2.157   4.655
 5907SOL    HW229061   3.205   2.153   4.724
 5908SOL     OW29062   3.438   3.524   4.031
 5908SOL    HW129063   3.527   3.570   4.034
 5908SOL    HW229064   3.417   3.500   3.936
 5909SOL     OW29065   2.669   2.467   5.189
 5909SOL    HW129066   2.622   2.464   5.278
 5909SOL    HW229067   2.618   2.412   5.123
 5910SOL     OW29068   3.256   2.331   5.398
 5910SOL    HW129069   3.236   2.374   5.486
 5910SOL    HW229070   3.334   2.269   5.407
 5911SOL     OW29071   2.835   2.752   5.296
 5911SOL    HW129072   2.881   2.668   5.267
 5911SOL    HW229073   2.779   2.786   5.221
 5912SOL     OW29074   2.853   2.272   4.966
 5912SOL    HW129075   2.776   2.306   5.020
 5912SOL    HW229076   2.819   2.221   4.887
 5913SOL     OW29077   2.903   2.563   4.153
 5913SOL    HW129078   2.929   2.559   4.249
 5913SOL    HW229079   2.818   2.512   4.139
 5914SOL     OW29080   1.938   2.673   4.513
 5914SOL    HW129081   2.037   2.661   4.522
 5914SOL    HW229082   1.914   2.768   4.534
 5915SOL     OW29083   1.992   3.683   5.295
 5915SOL    HW129084   1.982   3.668   5.394
 5915SOL    HW229085   1.906   3.719   5.259
 5916SOL     OW29086   2.727   2.210   3.919
 5916SOL    HW129087   2.786   2.273   3.870
 5916SOL    HW229088   2.746   2.116   3.890
 5917SOL     OW29089   3.581   2.447   5.555
 5917SOL    HW129090   3.555   2.536   5.519
 5917SOL    HW229091   3.579   2.379   5.482
 5918SOL     OW29092   3.224   3.006   4.269
 5918SOL    HW129093   3.307   2.977   4.221
 5918SOL    HW229094   3.175   3.073   4.213
 5919SOL     OW29095   2.412   2.058   4.609
 5919SOL    HW129096   2.407   2.053   4.709
 5919SOL    HW229097   2.414   2.154   4.580
 5920SOL     OW29098   2.870   3.318   4.201
 5920SOL    HW129099   2.824   3.390   4.149
 5920SOL    HW229100   2.866   3.338   4.299
 5921SOL     OW29101   2.213   3.663   4.577
 5921SOL    HW129102   2.263   3.577   4.583
 5921SOL    HW229103   2.278   3.740   4.574
 5922SOL     OW29104   3.657   2.928   4.597
 5922SOL    HW129105   3.595   2.913   4.521
 5922SOL    HW229106   3.605   2.939   4.682
 5923SOL     OW29107   3.089   3.412   5.230
 5923SOL    HW129108   3.095   3.335   5.294
 5923SOL    HW229109   3.037   3.386   5.150
 5924SOL     OW29110   2.183   2.805   3.966
 5924SOL    HW129111   2.265   2.844   3.924
 5924SOL    HW229112   2.156   2.723   3.917
 5925SOL     OW29113   3.320   2.597   4.452
 5925SOL    HW129114   3.315   2.532   4.527
 5925SOL    HW229115   3.400   2.656   4.465
 5926SOL     OW29116   2.323   3.128   5.451
 5926SOL    HW129117   2.273   3.129   5.365
 5926SOL    HW229118   2.260   3.110   5.527
 5927SOL     OW29119   2.973   3.638   3.961
 5927SOL    HW129120   2.913   3.576   4.011
 5927SOL    HW229121   3.004   3.594   3.876
 5928SOL     OW29122   2.064   2.147   5.222
 5928SOL    HW129123   1.984   2.207   5.209
 5928SOL    HW229124   2.054   2.098   5.308
 5929SOL     OW29125   3.494   3.239   3.805
 5929SOL    HW129126   3.462   3.333   3.795
 5929SOL    HW229127   3.418   3.176   3.793
 5930SOL     OW29128   2.326   3.605   4.047
 5930SOL    HW129129   2.359   3.644   4.133
 5930SOL    HW229130   2.402   3.598   3.982
 5931SOL     OW29131   3.262   1.969   4.150
 5931SOL    HW129132   3.238   1.932   4.060
 5931SOL    HW229133   3.361   1.985   4.154
 5932SOL     OW29134   2.111   3.647   4.965
 5932SOL    HW129135   2.168   3.582   5.015
 5932SOL    HW229136   2.095   3.614   4.872
 5933SOL     OW29137   2.802   3.560   4.628
 5933SOL    HW129138   2.882   3.503   4.649
 5933SOL    HW229139   2.753   3.520   4.551
 5934SOL     OW29140   2.244   2.562   4.204
 5934SOL    HW129141   2.289   2.472   4.201
 5934SOL    HW229142   2.150   2.551   4.237
 5935SOL     OW29143   3.409   2.084   5.453
 5935SOL    HW129144   3.404   2.121   5.545
 5935SOL    HW229145   3.337   2.015   5.441
 5936SOL     OW29146   2.476   1.984   3.841
 5936SOL    HW129147   2.574   1.962   3.848
 5936SOL    HW229148   2.445   1.967   3.748
 5937SOL     OW29149   2.643   2.126   5.473
 5937SOL    HW129150   2.710   2.065   5.516
 5937SOL    HW229151   2.570   2.145   5.538
 5938SOL     OW29152   2.750   3.376   4.919
 5938SOL    HW129153   2.727   3.351   4.825
 5938SOL    HW229154   2.811   3.307   4.958
 5939SOL     OW29155   3.213   2.452   5.157
 5939SOL    HW129156   3.241   2.409   5.242
 5939SOL    HW229157   3.238   2.548   5.158
 5940SOL     OW29158   2.665   3.264   4.648
 5940SOL    HW129159   2.755   3.278   4.606
 5940SOL    HW229160   2.594   3.266   4.577
 5941SOL     OW29161   2.784   2.365   4.623
 5941SOL    HW129162   2.759   2.356   4.527
 5941SOL    HW229163   2.832   2.283   4.654
 5942SOL     OW29164   2.401   1.926   4.236
 5942SOL    HW129165   2.320   1.927   4.294
 5942SOL    HW229166   2.404   2.009   4.181
 5943SOL     OW29167   3.296   3.050   3.765
 5943SOL    HW129168   3.328   2.974   3.822
 5943SOL    HW229169   3.204   3.077   3.795
 5944SOL     OW29170   2.159   1.897   3.895
 5944SOL    HW129171   2.208   1.981   3.874
 5944SOL    HW229172   2.221   1.832   3.940
 5945SOL     OW29173   2.797   2.098   4.204
 5945SOL    HW129174   2.749   2.139   4.126
 5945SOL    HW229175   2.896   2.096   4.185
 5946SOL     OW29176   2.938   2.545   5.188
 5946SOL    HW129177   2.858   2.484   5.191
 5946SOL    HW229178   3.019   2.492   5.164
 5947SOL     OW29179   3.089   3.432   4.517
 5947SOL    HW129180   3.110   3.506   4.452
 5947SOL    HW229181   3.157   3.432   4.590
 5948SOL     OW29182   2.321   3.014   4.465
 5948SOL    HW129183   2.250   2.987   4.530
 5948SOL    HW229184   2.295   2.986   4.372
 5949SOL     OW29185   3.133   3.659   4.315
 5949SOL    HW129186   3.177   3.723   4.251
 5949SOL    HW229187   3.083   3.711   4.385
 5950SOL     OW29188   2.894   2.411   3.740
 5950SOL    HW129189   2.853   2.493   3.701
 5950SOL    HW229190   2.958   2.437   3.813
 5951SOL     OW29191   1.940   2.418   5.110
 5951SOL    HW129192   2.032   2.417   5.069
 5951SOL    HW229193   1.934   2.492   5.177
 5952SOL     OW29194   2.423   2.084   4.871
 5952SOL    HW129195   2.461   2.000   4.908
 5952SOL    HW229196   2.335   2.103   4.915
 5953SOL     OW29197   2.728   2.316   4.366
 5953SOL    HW129198   2.696   2.388   4.304
 5953SOL    HW229199   2.752   2.235   4.313
 5954SOL     OW29200   2.879   1.901   4.477
 5954SOL    HW129201   2.807   1.906   4.408
 5954SOL    HW229202   2.855   1.832   4.546
 5955SOL     OW29203   3.291   3.035   4.591
 5955SOL    HW129204   3.236   2.951   4.584
 5955SOL    HW229205   3.317   3.064   4.499
 5956SOL     OW29206   3.328   2.452   4.716
 5956SOL    HW129207   3.298   2.357   4.723
 5956SOL    HW229208   3.401   2.468   4.782
 5957SOL     OW29209   3.719   2.695   4.101
 5957SOL    HW129210   3.761   2.631   4.165
 5957SOL    HW229211   3.681   2.644   4.023
 5958SOL     OW29212   2.350   3.247   3.898
 5958SOL    HW129213   2.263   3.232   3.945
 5958SOL    HW229214   2.333   3.273   3.803
 5959SOL     OW29215   3.526   3.142   4.381
 5959SOL    HW129216   3.625   3.150   4.395
 5959SOL    HW229217   3.481   3.226   4.412
 5960SOL     OW29218   3.252   2.437   3.802
 5960SOL    HW129219   3.198   2.416   3.883
 5960SOL    HW229220   3.343   2.396   3.811
 5961SOL     OW29221   2.389   2.118   4.052
 5961SOL    HW129222   2.416   2.059   3.977
 5961SOL    HW229223   2.389   2.213   4.021
 5962SOL     OW29224   3.616   3.085   5.312
 5962SOL    HW129225   3.707   3.046   5.299
 5962SOL    HW229226   3.624   3.181   5.336
 5963SOL     OW29227   2.926   3.209   5.064
 5963SOL    HW129228   2.846   3.186   5.119
 5963SOL    HW229229   3.009   3.183   5.113
 5964SOL     OW29230   3.454   3.491   5.349
 5964SOL    HW129231   3.481   3.525   5.259
 5964SOL    HW229232   3.533   3.453   5.395
 5965SOL     OW29233   2.973   3.057   4.824
 5965SOL    HW129234   2.933   3.101   4.905
 5965SOL    HW229235   2.932   3.094   4.741
 5966SOL     OW29236   3.500   2.961   4.803
 5966SOL    HW129237   3.505   3.042   4.862
 5966SOL    HW229238   3.414   2.963   4.752
 5967SOL     OW29239   2.777   1.951   5.126
 5967SOL    HW129240   2.802   1.931   5.031
 5967SOL    HW229241   2.849   2.007   5.168
 5968SOL     OW29242   2.842   2.978   5.443
 5968SOL    HW129243   2.743   2.984   5.453
 5968SOL    HW229244   2.865   2.898   5.387
 5969SOL     OW29245   2.567   2.912   4.092
 5969SOL    HW129246   2.553   2.919   4.191
 5969SOL    HW229247   2.651   2.861   4.074
 5970SOL     OW29248   2.272   2.675   4.975
 5970SOL    HW129249   2.358   2.687   5.025
 5970SOL    HW229250   2.230   2.588   5.002
 5971SOL     OW29251   3.136   2.248   4.986
 5971SOL    HW129252   3.157   2.322   5.050
 5971SOL    HW229253   3.047   2.265   4.943
 5972SOL     OW29254   1.926   3.426   5.055
 5972SOL    HW129255   1.880   3.508   5.021
 5972SOL    HW229256   2.024   3.445   5.064
 5973SOL     OW29257   2.229   2.962   4.225
 5973SOL    HW129258   2.222   3.045   4.169
 5973SOL    HW229259   2.233   2.882   4.165
 5974SOL     OW29260   2.428   2.399   4.589
 5974SOL    HW129261   2.440   2.465   4.515
 5974SOL    HW229262   2.474   2.433   4.672
 5975SOL     OW29263   3.114   3.210   4.112
 5975SOL    HW129264   3.164   3.287   4.152
 5975SOL    HW229265   3.019   3.212   4.144
 5976SOL     OW29266   3.134   3.307   4.866
 5976SOL    HW129267   3.181   3.320   4.953
 5976SOL    HW229268   3.068   3.233   4.875
 5977SOL     OW29269   3.444   2.501   4.196
 5977SOL    HW129270   3.413   2.562   4.269
 5977SOL    HW229271   3.494   2.553   4.127
 5978SOL     OW29272   2.216   3.372   5.053
 5978SOL    HW129273   2.195   3.328   4.966
 5978SOL    HW229274   2.313   3.398   5.056
 5979SOL     OW29275   2.264   2.613   5.322
 5979SOL    HW129276   2.332   2.668   5.275
 5979SOL    HW229277   2.304   2.525   5.349
 5980SOL     OW29278   3.449   2.641   5.394
 5980SOL    HW129279   3.357   2.679   5.389
 5980SOL    HW229280   3.509   2.688   5.329
 5981SOL     OW29281   2.875   1.967   5.494
 5981SOL    HW129282   2.881   2.052   5.442
 5981SOL    HW229283   2.907   1.891   5.437
 5982SOL     OW29284   2.366   1.912   5.464
 5982SOL    HW129285   2.324   1.855   5.394
 5982SOL    HW229286   2.300   1.981   5.496
 5983SOL     OW29287   2.435   2.732   4.753
 5983SOL    HW129288   2.479   2.821   4.744
 5983SOL    HW229289   2.372   2.732   4.830
 5984SOL     OW29290   3.222   2.724   4.769
 5984SOL    HW129291   3.147   2.724   4.703
 5984SOL    HW229292   3.259   2.632   4.778
 5985SOL     OW29293   3.071   2.387   3.999
 5985SOL    HW129294   3.084   2.303   4.053
 5985SOL    HW229295   3.042   2.461   4.059
 5986SOL     OW29296   2.169   2.075   4.955
 5986SOL    HW129297   2.146   2.112   5.045
 5986SOL    HW229298   2.139   1.980   4.949
 5987SOL     OW29299   1.899   3.172   5.006
 5987SOL    HW129300   1.952   3.123   5.074
 5987SOL    HW229301   1.921   3.270   5.011
 5988SOL     OW29302   2.594   2.496   4.788
 5988SOL    HW129303   2.653   2.470   4.712
 5988SOL    HW229304   2.566   2.592   4.777
 5989SOL     OW29305   3.590   2.797   5.578
 5989SOL    HW129306   3.544   2.790   5.489
 5989SOL    HW229307   3.528   2.841   5.644
 5990SOL     OW29308   2.169   1.925   4.342
 5990SOL    HW129309   2.158   2.019   4.375
 5990SOL    HW229310   2.164   1.862   4.419
 5991SOL     OW29311   3.484   2.229   4.098
 5991SOL    HW129312   3.486   2.153   4.162
 5991SOL    HW229313   3.436   2.306   4.138
 5992SOL     OW29314   2.885   2.628   4.690
 5992SOL    HW129315   2.900   2.649   4.786
 5992SOL    HW229316   2.855   2.533   4.681
 5993SOL     OW29317   2.842   3.435   5.424
 5993SOL    HW129318   2.822   3.479   5.336
 5993SOL    HW229319   2.881   3.344   5.408
 5994SOL     OW29320   3.721   3.380   5.329
 5994SOL    HW129321   3.735   3.407   5.234
 5994SOL    HW229322   3.804   3.402   5.382
 5995SOL     OW29323   2.212   2.760   5.528
 5995SOL    HW129324   2.288   2.804   5.576
 5995SOL    HW229325   2.247   2.713   5.446
 5996SOL     OW29326   3.402   2.136   3.849
 5996SOL    HW129327   3.341   2.061   3.872
 5996SOL    HW229328   3.424   2.188   3.932
 5997SOL     OW29329   3.165   2.700   3.766
 5997SOL    HW129330   3.199   2.607   3.781
 5997SOL    HW229331   3.183   2.727   3.671
 5998SOL     OW29332   2.930   3.195   4.573
 5998SOL    HW129333   2.937   3.111   4.518
 5998SOL    HW229334   2.992   3.264   4.537
 5999SOL     OW29335   2.181   2.672   4.673
 5999SOL    HW129336   2.274   2.708   4.678
 5999SOL    HW229337   2.175   2.587   4.725
 6000SOL     OW29338   2.201   2.371   4.730
 6000SOL    HW129339   2.149   2.288   4.713
 6000SOL    HW229340   2.278   2.376   4.666
 6001SOL     OW29341   3.000   2.242   5.402
 6001SOL    HW129342   2.955   2.305   5.466
 6001SOL    HW229343   3.093   2.273   5.385
 6002SOL     OW29344   3.022   2.069   5.201
 6002SOL    HW129345   3.022   2.133   5.278
 6002SOL    HW229346   3.050   2.117   5.118
 6003SOL     OW29347   1.870   3.188   3.924
 6003SOL    HW129348   1.777   3.209   3.893
 6003SOL    HW229349   1.880   3.089   3.937
 6004SOL     OW29350   1.950   3.663   4.651
 6004SOL    HW129351   1.908   3.577   4.624
 6004SOL    HW229352   2.044   3.666   4.617
 6005SOL     OW29353   2.366   3.430   4.634
 6005SOL    HW129354   2.432   3.504   4.643
 6005SOL    HW229355   2.410   3.351   4.592
 6006SOL     OW29356   2.864   2.658   4.962
 6006SOL    HW129357   2.905   2.626   5.048
 6006SOL    HW229358   2.768   2.631   4.959
 6007SOL     OW29359   1.902   2.406   4.838
 6007SOL    HW129360   1.987   2.373   4.797
 6007SOL    HW229361   1.915   2.421   4.936
 6008SOL     OW29362   2.051   2.382   5.446
 6008SOL    HW129363   2.110   2.342   5.376
 6008SOL    HW229364   1.993   2.453   5.405
 6009SOL     OW29365   3.231   2.812   5.384
 6009SOL    HW129366   3.270   2.901   5.404
 6009SOL    HW229367   3.241   2.792   5.287
 6010SOL     OW29368   2.677   2.434   4.049
 6010SOL    HW129369   2.684   2.345   4.003
 6010SOL    HW229370   2.583   2.468   4.041
 6011SOL     OW29371   3.519   2.466   4.930
 6011SOL    HW129372   3.481   2.397   4.992
 6011SOL    HW229373   3.601   2.430   4.886
 6012SOL     OW29374   2.114   3.426   5.468
 6012SOL    HW129375   2.084   3.483   5.544
 6012SOL    HW229376   2.107   3.329   5.494
 6013SOL     OW29377   2.533   2.326   4.993
 6013SOL    HW129378   2.499   2.237   4.963
 6013SOL    HW229379   2.559   2.380   4.913
 6014SOL     OW29380   2.792   3.540   5.189
 6014SOL    HW129381   2.768   3.522   5.094
 6014SOL    HW229382   2.822   3.634   5.199
 6015SOL     OW29383   2.335   2.362   3.915
 6015SOL    HW129384   2.396   2.442   3.919
 6015SOL    HW229385   2.240   2.393   3.922
 6016SOL     OW29386   2.021   2.999   5.190
 6016SOL    HW129387   2.043   2.938   5.266
 6016SOL    HW229388   2.031   2.950   5.104
 6017SOL     OW29389   3.209   2.921   4.958
 6017SOL    HW129390   3.233   2.858   4.884
 6017SOL    HW229391   3.119   2.961   4.940
 6018SOL     OW29392   3.164   2.717   4.033
 6018SOL    HW129393   3.078   2.686   4.075
 6018SOL    HW229394   3.160   2.703   3.934
 6019SOL     OW29395   3.621   3.609   4.878
 6019SOL    HW129396   3.682   3.639   4.805
 6019SOL    HW229397   3.583   3.520   4.856
 6020SOL     OW29398   3.114   3.593   4.852
 6020SOL    HW129399   3.198   3.598   4.798
 6020SOL    HW229400   3.091   3.497   4.870
 6021SOL     OW29401   1.945   3.120   4.746
 6021SOL    HW129402   1.940   3.119   4.846
 6021SOL    HW229403   1.862   3.079   4.708
 6022SOL     OW29404   3.588   1.997   4.247
 6022SOL    HW129405   3.661   1.980   4.180
 6022SOL    HW229406   3.557   1.910   4.285
 6023SOL     OW29407   3.250   3.435   4.201
 6023SOL    HW129408   3.317   3.447   4.127
 6023SOL    HW229409   3.210   3.524   4.224
 6024SOL     OW29410   1.992   3.656   5.575
 6024SOL    HW129411   1.951   3.582   5.628
 6024SOL    HW229412   2.056   3.707   5.633
 6025SOL     OW29413   3.142   2.789   4.396
 6025SOL    HW129414   3.202   2.708   4.398
 6025SOL    HW229415   3.182   2.858   4.336
 6026SOL     OW29416   2.692   3.135   5.146
 6026SOL    HW129417   2.687   3.168   5.241
 6026SOL    HW229418   2.606   3.154   5.100
 6027SOL     OW29419   2.534   3.478   3.878
 6027SOL    HW129420   2.543   3.488   3.779
 6027SOL    HW229421   2.494   3.389   3.899
 6028SOL     OW29422   3.512   3.582   5.118
 6028SOL    HW129423   3.565   3.592   5.034
 6028SOL    HW229424   3.485   3.672   5.152
 6029SOL     OW29425   3.703   2.037   4.687
 6029SOL    HW129426   3.742   1.952   4.651
 6029SOL    HW229427   3.605   2.039   4.668
 6030SOL     OW29428   2.125   2.188   4.444
 6030SOL    HW129429   2.046   2.239   4.410
 6030SOL    HW229430   2.116   2.173   4.542
 6031SOL     OW29431   3.056   3.474   3.755
 6031SOL    HW129432   3.062   3.381   3.792
 6031SOL    HW229433   2.997   3.474   3.675
 6032SOL     OW29434   2.684   2.864   5.096
 6032SOL    HW129435   2.724   2.863   5.004
 6032SOL    HW229436   2.694   2.956   5.136
 6033SOL     OW29437   2.778   2.772   4.015
 6033SOL    HW129438   2.841   2.810   3.947
 6033SOL    HW229439   2.818   2.689   4.054
 6034SOL     OW29440   3.366   3.469   3.768
 6034SOL    HW129441   3.274   3.506   3.775
 6034SOL    HW229442   3.404   3.489   3.678
 6035SOL     OW29443   2.234   3.150   5.214
 6035SOL    HW129444   2.221   3.243   5.180
 6035SOL    HW229445   2.150   3.098   5.201
 6036SOL     OW29446   3.476   3.154   5.013
 6036SOL    HW129447   3.536   3.157   5.093
 6036SOL    HW229448   3.401   3.218   5.026
 6037SOL     OW29449   2.901   2.960   4.420
 6037SOL    HW129450   2.831   2.913   4.474
 6037SOL    HW229451   2.960   2.892   4.377
 6038SOL     OW29452   2.876   2.098   4.695
 6038SOL    HW129453   2.868   2.062   4.602
 6038SOL    HW229454   2.874   2.022   4.760
 6039SOL     OW29455   2.452   3.349   4.215
 6039SOL    HW129456   2.494   3.291   4.145
 6039SOL    HW229457   2.408   3.428   4.171
 6040SOL     OW29458   3.571   2.247   5.105
 6040SOL    HW129459   3.644   2.316   5.109
 6040SOL    HW229460   3.599   2.172   5.046
 6041SOL     OW29461   2.117   3.210   4.014
 6041SOL    HW129462   2.021   3.211   3.987
 6041SOL    HW229463   2.129   3.263   4.098
 6042SOL     OW29464   1.967   2.875   5.450
 6042SOL    HW129465   1.890   2.842   5.504
 6042SOL    HW229466   2.052   2.845   5.492
 6043SOL     OW29467   2.534   2.065   5.213
 6043SOL    HW129468   2.624   2.049   5.173
 6043SOL    HW229469   2.542   2.070   5.312
 6044SOL     OW29470   1.937   2.207   3.757
 6044SOL    HW129471   1.845   2.179   3.728
 6044SOL    HW229472   1.968   2.284   3.701
 6045SOL     OW29473   3.302   2.718   5.122
 6045SOL    HW129474   3.245   2.770   5.059
 6045SOL    HW229475   3.398   2.730   5.098
 6046SOL     OW29476   1.934   2.028   4.042
 6046SOL    HW129477   1.917   2.111   3.988
 6046SOL    HW229478   2.024   1.991   4.020
 6047SOL     OW29479   3.045   3.197   3.843
 6047SOL    HW129480   2.946   3.186   3.845
 6047SOL    HW229481   3.079   3.212   3.936
 6048SOL     OW29482   2.475   2.704   5.155
 6048SOL    HW129483   2.531   2.785   5.138
 6048SOL    HW229484   2.534   2.624   5.158
 6049SOL     OW29485   3.355   3.629   4.683
 6049SOL    HW129486   3.388   3.693   4.614
 6049SOL    HW229487   3.421   3.623   4.758
 6050SOL     OW29488   2.578   2.427   5.432
 6050SOL    HW129489   2.597   2.492   5.506
 6050SOL    HW229490   2.638   2.347   5.441
 6051SOL     OW29491   3.312   3.082   5.357
 6051SOL    HW129492   3.303   3.072   5.456
 6051SOL    HW229493   3.408   3.075   5.331
 6052SOL     OW29494   2.252   3.603   5.284
 6052SOL    HW129495   2.161   3.644   5.282
 6052SOL    HW229496   2.245   3.509   5.316
 6053SOL     OW29497   3.536   2.745   4.978
 6053SOL    HW129498   3.509   2.656   4.941
 6053SOL    HW229499   3.537   2.813   4.905
 6054SOL     OW29500   3.087   2.187   4.173
 6054SOL    HW129501   3.152   2.113   4.162
 6054SOL    HW229502   3.107   2.237   4.257
 6055SOL     OW29503   2.456   2.607   4.376
 6055SOL    HW129504   2.506   2.692   4.357
 6055SOL    HW229505   2.368   2.609   4.328
 6056SOL     OW29506   3.639   2.204   5.366
 6056SOL    HW129507   3.622   2.235   5.272
 6056SOL    HW229508   3.555   2.167   5.404
 6057SOL     OW29509   3.592   2.796   5.241
 6057SOL    HW129510   3.630   2.887   5.256
 6057SOL    HW229511   3.584   2.779   5.142
 6058SOL     OW29512   2.721   3.236   3.740
 6058SOL    HW129513   2.675   3.251   3.828
 6058SOL    HW229514   2.765   3.321   3.710
 6059SOL     OW29515   2.523   3.652   4.677
 6059SOL    HW129516   2.477   3.740   4.664
 6059SOL    HW229517   2.622   3.664   4.670
 6060SOL     OW29518   2.721   2.818   4.585
 6060SOL    HW129519   2.775   2.749   4.633
 6060SOL    HW229520   2.689   2.887   4.651
 6061SOL     OW29521   2.945   2.846   3.811
 6061SOL    HW129522   2.922   2.899   3.729
 6061SOL    HW229523   3.026   2.790   3.792
 6062SOL     OW29524   3.723   3.431   4.575
 6062SOL    HW129525   3.652   3.419   4.505
 6062SOL    HW229526   3.724   3.352   4.635
 6063SOL     OW29527   2.083   3.176   5.568
 6063SOL    HW129528   2.018   3.103   5.547
 6063SOL    HW229529   2.087   3.190   5.666
 6064SOL     OW29530   1.941   3.102   4.377
 6064SOL    HW129531   1.940   3.055   4.465
 6064SOL    HW229532   2.023   3.074   4.326
 6065SOL     OW29533   3.686   2.054   4.951
 6065SOL    HW129534   3.682   1.964   4.995
 6065SOL    HW229535   3.689   2.043   4.852
 6066SOL     OW29536   2.290   2.286   4.244
 6066SOL    HW129537   2.320   2.214   4.182
 6066SOL    HW229538   2.251   2.246   4.327
 6067SOL     OW29539   3.567   3.349   4.828
 6067SOL    HW129540   3.474   3.324   4.801
 6067SOL    HW229541   3.593   3.299   4.910
 6068SOL     OW29542   2.179   2.409   5.004
 6068SOL    HW129543   2.217   2.350   5.076
 6068SOL    HW229544   2.219   2.383   4.916
 6069SOL     OW29545   2.674   3.448   4.411
 6069SOL    HW129546   2.706   3.458   4.317
 6069SOL    HW229547   2.595   3.386   4.413
 6070SOL     OW29548   3.286   2.076   4.836
 6070SOL    HW129549   3.338   2.011   4.891
 6070SOL    HW229550   3.237   2.139   4.897
 6071SOL     OW29551   2.863   1.896   4.878
 6071SOL    HW129552   2.800   1.824   4.847
 6071SOL    HW229553   2.956   1.860   4.878
 6072SOL     OW29554   2.632   3.192   4.025
 6072SOL    HW129555   2.586   3.105   4.042
 6072SOL    HW229556   2.723   3.189   4.066
 6073SOL     OW29557   2.480   3.429   5.008
 6073SOL    HW129558   2.475   3.511   5.065
 6073SOL    HW229559   2.569   3.426   4.963
 6074SOL     OW29560   3.214   1.914   3.892
 6074SOL    HW129561   3.249   1.873   3.808
 6074SOL    HW229562   3.124   1.876   3.912
 6075SOL     OW29563   3.162   2.315   4.415
 6075SOL    HW129564   3.103   2.395   4.419
 6075SOL    HW229565   3.177   2.280   4.508
 6076SOL     OW29566   3.455   2.083   4.606
 6076SOL    HW129567   3.371   2.082   4.660
 6076SOL    HW229568   3.457   2.166   4.550
 6077SOL     OW29569   1.901   2.939   4.024
 6077SOL    HW129570   2.000   2.928   4.015
 6077SOL    HW229571   1.861   2.853   4.056
 6078SOL     OW29572   2.737   3.508   4.061
 6078SOL    HW129573   2.660   3.473   4.007
 6078SOL    HW229574   2.705   3.579   4.123
 6079SOL     OW29575   2.092   2.490   5.699
 6079SOL    HW129576   1.999   2.488   5.736
 6079SOL    HW229577   2.093   2.451   5.607
 6080SOL     OW29578   2.087   2.137   6.582
 6080SOL    HW129579   2.122   2.120   6.674
 6080SOL    HW229580   1.999   2.092   6.570
 6081SOL     OW29581   1.881   2.230   6.233
 6081SOL    HW129582   1.799   2.273   6.272
 6081SOL    HW229583   1.853   2.157   6.170
 6082SOL     OW29584   2.431   3.137   6.751
 6082SOL    HW129585   2.338   3.130   6.714
 6082SOL    HW229586   2.442   3.226   6.795
 6083SOL     OW29587   3.417   3.373   6.289
 6083SOL    HW129588   3.360   3.357   6.370
 6083SOL    HW229589   3.358   3.383   6.209
 6084SOL     OW29590   2.997   2.565   6.303
 6084SOL    HW129591   3.054   2.643   6.278
 6084SOL    HW229592   2.937   2.591   6.379
 6085SOL     OW29593   3.617   2.469   5.817
 6085SOL    HW129594   3.605   2.456   5.718
 6085SOL    HW229595   3.587   2.388   5.866
 6086SOL     OW29596   2.630   3.006   6.609
 6086SOL    HW129597   2.552   3.023   6.669
 6086SOL    HW229598   2.664   3.093   6.573
 6087SOL     OW29599   2.712   2.660   7.409
 6087SOL    HW129600   2.708   2.736   7.474
 6087SOL    HW229601   2.734   2.696   7.318
 6088SOL     OW29602   2.547   2.874   6.251
 6088SOL    HW129603   2.616   2.858   6.321
 6088SOL    HW229604   2.474   2.931   6.289
 6089SOL     OW29605   2.548   3.023   7.389
 6089SOL    HW129606   2.608   3.102   7.403
 6089SOL    HW229607   2.462   3.054   7.348
 6090SOL     OW29608   2.197   3.297   6.647
 6090SOL    HW129609   2.119   3.266   6.594
 6090SOL    HW229610   2.255   3.355   6.590
 6091SOL     OW29611   3.322   3.367   6.925
 6091SOL    HW129612   3.346   3.461   6.951
 6091SOL    HW229613   3.306   3.313   7.007
 6092SOL     OW29614   2.300   2.254   7.085
 6092SOL    HW129615   2.382   2.198   7.094
 6092SOL    HW229616   2.219   2.196   7.089
 6093SOL     OW29617   3.465   2.309   6.323
 6093SOL    HW129618   3.391   2.355   6.273
 6093SOL    HW229619   3.516   2.377   6.376
 6094SOL     OW29620   2.093   3.575   6.069
 6094SOL    HW129621   2.127   3.652   6.123
 6094SOL    HW229622   2.137   3.575   5.979
 6095SOL     OW29623   2.989   3.203   7.276
 6095SOL    HW129624   3.036   3.203   7.364
 6095SOL    HW229625   2.941   3.116   7.265
 6096SOL     OW29626   2.092   3.296   6.124
 6096SOL    HW129627   2.066   3.392   6.124
 6096SOL    HW229628   2.021   3.242   6.169
 6097SOL     OW29629   2.102   2.953   6.472
 6097SOL    HW129630   2.116   2.869   6.524
 6097SOL    HW229631   2.047   3.017   6.527
 6098SOL     OW29632   2.482   3.648   7.025
 6098SOL    HW129633   2.390   3.631   7.060
 6098SOL    HW229634   2.510   3.740   7.051
 6099SOL     OW29635   2.468   2.826   5.709
 6099SOL    HW129636   2.475   2.910   5.655
 6099SOL    HW229637   2.514   2.839   5.797
 6100SOL     OW29638   3.456   1.976   7.066
 6100SOL    HW129639   3.438   2.043   6.994
 6100SOL    HW229640   3.453   2.022   7.155
 6101SOL     OW29641   1.984   2.505   6.149
 6101SOL    HW129642   1.939   2.417   6.166
 6101SOL    HW229643   1.983   2.559   6.233
 6102SOL     OW29644   3.704   3.629   5.945
 6102SOL    HW129645   3.758   3.600   6.025
 6102SOL    HW229646   3.734   3.719   5.916
 6103SOL     OW29647   1.889   3.458   5.703
 6103SOL    HW129648   1.870   3.362   5.724
 6103SOL    HW229649   1.856   3.516   5.778
 6104SOL     OW29650   3.551   2.784   6.198
 6104SOL    HW129651   3.646   2.755   6.206
 6104SOL    HW229652   3.543   2.849   6.123
 6105SOL     OW29653   3.503   2.970   6.018
 6105SOL    HW129654   3.589   2.972   5.966
 6105SOL    HW229655   3.517   3.017   6.106
 6106SOL     OW29656   1.975   2.599   7.183
 6106SOL    HW129657   2.063   2.586   7.228
 6106SOL    HW229658   1.962   2.696   7.161
 6107SOL     OW29659   2.475   3.227   6.312
 6107SOL    HW129660   2.426   3.140   6.321
 6107SOL    HW229661   2.452   3.270   6.225
 6108SOL     OW29662   3.155   3.090   7.009
 6108SOL    HW129663   3.192   3.017   6.951
 6108SOL    HW229664   3.207   3.095   7.094
 6109SOL     OW29665   2.671   1.866   6.088
 6109SOL    HW129666   2.711   1.957   6.079
 6109SOL    HW229667   2.571   1.874   6.094
 6110SOL     OW29668   2.059   2.838   6.850
 6110SOL    HW129669   2.148   2.793   6.836
 6110SOL    HW229670   1.986   2.773   6.831
 6111SOL     OW29671   3.387   2.861   5.776
 6111SOL    HW129672   3.324   2.785   5.789
 6111SOL    HW229673   3.435   2.879   5.862
 6112SOL     OW29674   3.049   3.654   7.202
 6112SOL    HW129675   3.073   3.714   7.126
 6112SOL    HW229676   3.056   3.559   7.172
 6113SOL     OW29677   2.179   2.113   7.387
 6113SOL    HW129678   2.250   2.184   7.393
 6113SOL    HW229679   2.091   2.152   7.415
 6114SOL     OW29680   3.328   3.279   6.539
 6114SOL    HW129681   3.269   3.285   6.619
 6114SOL    HW229682   3.313   3.191   6.493
 6115SOL     OW29683   3.529   3.576   6.158
 6115SOL    HW129684   3.488   3.553   6.070
 6115SOL    HW229685   3.511   3.502   6.223
 6116SOL     OW29686   2.460   2.591   5.856
 6116SOL    HW129687   2.484   2.660   5.788
 6116SOL    HW229688   2.382   2.624   5.910
 6117SOL     OW29689   3.143   2.207   6.530
 6117SOL    HW129690   3.057   2.157   6.517
 6117SOL    HW229691   3.205   2.153   6.586
 6118SOL     OW29692   3.438   3.524   5.893
 6118SOL    HW129693   3.527   3.570   5.896
 6118SOL    HW229694   3.417   3.500   5.798
 6119SOL     OW29695   2.669   2.467   7.051
 6119SOL    HW129696   2.622   2.464   7.140
 6119SOL    HW229697   2.618   2.412   6.985
 6120SOL     OW29698   3.256   2.331   7.260
 6120SOL    HW129699   3.236   2.374   7.348
 6120SOL    HW229700   3.334   2.269   7.269
 6121SOL     OW29701   2.835   2.752   7.158
 6121SOL    HW129702   2.881   2.668   7.129
 6121SOL    HW229703   2.779   2.786   7.083
 6122SOL     OW29704   2.853   2.272   6.828
 6122SOL    HW129705   2.776   2.306   6.882
 6122SOL    HW229706   2.819   2.221   6.749
 6123SOL     OW29707   2.903   2.563   6.015
 6123SOL    HW129708   2.929   2.559   6.111
 6123SOL    HW229709   2.818   2.512   6.001
 6124SOL     OW29710   1.938   2.673   6.375
 6124SOL    HW129711   2.037   2.661   6.384
 6124SOL    HW229712   1.914   2.768   6.396
 6125SOL     OW29713   1.992   3.683   7.157
 6125SOL    HW129714   1.982   3.668   7.256
 6125SOL    HW229715   1.906   3.719   7.121
 6126SOL     OW29716   2.727   2.210   5.781
 6126SOL    HW129717   2.786   2.273   5.732
 6126SOL    HW229718   2.746   2.116   5.752
 6127SOL     OW29719   3.581   2.447   7.417
 6127SOL    HW129720   3.555   2.536   7.381
 6127SOL    HW229721   3.579   2.379   7.344
 6128SOL     OW29722   3.224   3.006   6.131
 6128SOL    HW129723   3.307   2.977   6.083
 6128SOL    HW229724   3.175   3.073   6.075
 6129SOL     OW29725   2.412   2.058   6.471
 6129SOL    HW129726   2.407   2.053   6.571
 6129SOL    HW229727   2.414   2.154   6.442
 6130SOL     OW29728   2.870   3.318   6.063
 6130SOL    HW129729   2.824   3.390   6.011
 6130SOL    HW229730   2.866   3.338   6.161
 6131SOL     OW29731   2.213   3.663   6.439
 6131SOL    HW129732   2.263   3.577   6.445
 6131SOL    HW229733   2.278   3.740   6.436
 6132SOL     OW29734   3.657   2.928   6.459
 6132SOL    HW129735   3.595   2.913   6.383
 6132SOL    HW229736   3.605   2.939   6.544
 6133SOL     OW29737   3.089   3.412   7.092
 6133SOL    HW129738   3.095   3.335   7.156
 6133SOL    HW229739   3.037   3.386   7.012
 6134SOL     OW29740   2.183   2.805   5.828
 6134SOL    HW129741   2.265   2.844   5.786
 6134SOL    HW229742   2.156   2.723   5.779
 6135SOL     OW29743   3.320   2.597   6.314
 6135SOL    HW129744   3.315   2.532   6.389
 6135SOL    HW229745   3.400   2.656   6.327
 6136SOL     OW29746   2.323   3.128   7.313
 6136SOL    HW129747   2.273   3.129   7.227
 6136SOL    HW229748   2.260   3.110   7.389
 6137SOL     OW29749   2.973   3.638   5.823
 6137SOL    HW129750   2.913   3.576   5.873
 6137SOL    HW229751   3.004   3.594   5.738
 6138SOL     OW29752   2.064   2.147   7.084
 6138SOL    HW129753   1.984   2.207   7.071
 6138SOL    HW229754   2.054   2.098   7.170
 6139SOL     OW29755   3.494   3.239   5.667
 6139SOL    HW129756   3.462   3.333   5.657
 6139SOL    HW229757   3.418   3.176   5.655
 6140SOL     OW29758   2.326   3.605   5.909
 6140SOL    HW129759   2.359   3.644   5.995
 6140SOL    HW229760   2.402   3.598   5.844
 6141SOL     OW29761   3.262   1.969   6.012
 6141SOL    HW129762   3.238   1.932   5.922
 6141SOL    HW229763   3.361   1.985   6.016
 6142SOL     OW29764   2.111   3.647   6.827
 6142SOL    HW129765   2.168   3.582   6.877
 6142SOL    HW229766   2.095   3.614   6.734
 6143SOL     OW29767   2.802   3.560   6.490
 6143SOL    HW129768   2.882   3.503   6.511
 6143SOL    HW229769   2.753   3.520   6.413
 6144SOL     OW29770   2.244   2.562   6.066
 6144SOL    HW129771   2.289   2.472   6.063
 6144SOL    HW229772   2.150   2.551   6.099
 6145SOL     OW29773   3.409   2.084   7.315
 6145SOL    HW129774   3.404   2.121   7.407
 6145SOL    HW229775   3.337   2.015   7.303
 6146SOL     OW29776   2.476   1.984   5.703
 6146SOL    HW129777   2.574   1.962   5.710
 6146SOL    HW229778   2.445   1.967   5.610
 6147SOL     OW29779   2.643   2.126   7.335
 6147SOL    HW129780   2.710   2.065   7.378
 6147SOL    HW229781   2.570   2.145   7.400
 6148SOL     OW29782   2.750   3.376   6.781
 6148SOL    HW129783   2.727   3.351   6.687
 6148SOL    HW229784   2.811   3.307   6.820
 6149SOL     OW29785   3.213   2.452   7.019
 6149SOL    HW129786   3.241   2.409   7.104
 6149SOL    HW229787   3.238   2.548   7.020
 6150SOL     OW29788   2.665   3.264   6.510
 6150SOL    HW129789   2.755   3.278   6.468
 6150SOL    HW229790   2.594   3.266   6.439
 6151SOL     OW29791   2.784   2.365   6.485
 6151SOL    HW129792   2.759   2.356   6.389
 6151SOL    HW229793   2.832   2.283   6.516
 6152SOL     OW29794   2.401   1.926   6.098
 6152SOL    HW129795   2.320   1.927   6.156
 6152SOL    HW229796   2.404   2.009   6.043
 6153SOL     OW29797   3.296   3.050   5.627
 6153SOL    HW129798   3.328   2.974   5.684
 6153SOL    HW229799   3.204   3.077   5.657
 6154SOL     OW29800   2.159   1.897   5.757
 6154SOL    HW129801   2.208   1.981   5.736
 6154SOL    HW229802   2.221   1.832   5.802
 6155SOL     OW29803   2.797   2.098   6.066
 6155SOL    HW129804   2.749   2.139   5.988
 6155SOL    HW229805   2.896   2.096   6.047
 6156SOL     OW29806   2.938   2.545   7.050
 6156SOL    HW129807   2.858   2.484   7.053
 6156SOL    HW229808   3.019   2.492   7.026
 6157SOL     OW29809   3.089   3.432   6.379
 6157SOL    HW129810   3.110   3.506   6.314
 6157SOL    HW229811   3.157   3.432   6.452
 6158SOL     OW29812   2.321   3.014   6.327
 6158SOL    HW129813   2.250   2.987   6.392
 6158SOL    HW229814   2.295   2.986   6.234
 6159SOL     OW29815   3.133   3.659   6.177
 6159SOL    HW129816   3.177   3.723   6.113
 6159SOL    HW229817   3.083   3.711   6.247
 6160SOL     OW29818   2.894   2.411   5.602
 6160SOL    HW129819   2.853   2.493   5.563
 6160SOL    HW229820   2.958   2.437   5.675
 6161SOL     OW29821   1.940   2.418   6.972
 6161SOL    HW129822   2.032   2.417   6.931
 6161SOL    HW229823   1.934   2.492   7.039
 6162SOL     OW29824   2.423   2.084   6.733
 6162SOL    HW129825   2.461   2.000   6.770
 6162SOL    HW229826   2.335   2.103   6.777
 6163SOL     OW29827   2.728   2.316   6.228
 6163SOL    HW129828   2.696   2.388   6.166
 6163SOL    HW229829   2.752   2.235   6.175
 6164SOL     OW29830   2.879   1.901   6.339
 6164SOL    HW129831   2.807   1.906   6.270
 6164SOL    HW229832   2.855   1.832   6.408
 6165SOL     OW29833   3.291   3.035   6.453
 6165SOL    HW129834   3.236   2.951   6.446
 6165SOL    HW229835   3.317   3.064   6.361
 6166SOL     OW29836   3.328   2.452   6.578
 6166SOL    HW129837   3.298   2.357   6.585
 6166SOL    HW229838   3.401   2.468   6.644
 6167SOL     OW29839   3.719   2.695   5.963
 6167SOL    HW129840   3.761   2.631   6.027
 6167SOL    HW229841   3.681   2.644   5.885
 6168SOL     OW29842   2.350   3.247   5.760
 6168SOL    HW129843   2.263   3.232   5.807
 6168SOL    HW229844   2.333   3.273   5.665
 6169SOL     OW29845   3.526   3.142   6.243
 6169SOL    HW129846   3.625   3.150   6.257
 6169SOL    HW229847   3.481   3.226   6.274
 6170SOL     OW29848   3.252   2.437   5.664
 6170SOL    HW129849   3.198   2.416   5.745
 6170SOL    HW229850   3.343   2.396   5.673
 6171SOL     OW29851   2.389   2.118   5.914
 6171SOL    HW129852   2.416   2.059   5.839
 6171SOL    HW229853   2.389   2.213   5.883
 6172SOL     OW29854   3.616   3.085   7.174
 6172SOL    HW129855   3.707   3.046   7.161
 6172SOL    HW229856   3.624   3.181   7.198
 6173SOL     OW29857   2.926   3.209   6.926
 6173SOL    HW129858   2.846   3.186   6.981
 6173SOL    HW229859   3.009   3.183   6.975
 6174SOL     OW29860   3.454   3.491   7.211
 6174SOL    HW129861   3.481   3.525   7.121
 6174SOL    HW229862   3.533   3.453   7.257
 6175SOL     OW29863   2.973   3.057   6.686
 6175SOL    HW129864   2.933   3.101   6.767
 6175SOL    HW229865   2.932   3.094   6.603
 6176SOL     OW29866   3.500   2.961   6.665
 6176SOL    HW129867   3.505   3.042   6.724
 6176SOL    HW229868   3.414   2.963   6.614
 6177SOL     OW29869   2.777   1.951   6.988
 6177SOL    HW129870   2.802   1.931   6.893
 6177SOL    HW229871   2.849   2.007   7.030
 6178SOL     OW29872   2.842   2.978   7.305
 6178SOL    HW129873   2.743   2.984   7.315
 6178SOL    HW229874   2.865   2.898   7.249
 6179SOL     OW29875   2.567   2.912   5.954
 6179SOL    HW129876   2.553   2.919   6.053
 6179SOL    HW229877   2.651   2.861   5.936
 6180SOL     OW29878   2.272   2.675   6.837
 6180SOL    HW129879   2.358   2.687   6.887
 6180SOL    HW229880   2.230   2.588   6.864
 6181SOL     OW29881   3.136   2.248   6.848
 6181SOL    HW129882   3.157   2.322   6.912
 6181SOL    HW229883   3.047   2.265   6.805
 6182SOL     OW29884   1.926   3.426   6.917
 6182SOL    HW129885   1.880   3.508   6.883
 6182SOL    HW229886   2.024   3.445   6.926
 6183SOL     OW29887   2.229   2.962   6.087
 6183SOL    HW129888   2.222   3.045   6.031
 6183SOL    HW229889   2.233   2.882   6.027
 6184SOL     OW29890   2.428   2.399   6.451
 6184SOL    HW129891   2.440   2.465   6.377
 6184SOL    HW229892   2.474   2.433   6.534
 6185SOL     OW29893   3.114   3.210   5.974
 6185SOL    HW129894   3.164   3.287   6.014
 6185SOL    HW229895   3.019   3.212   6.006
 6186SOL     OW29896   3.134   3.307   6.728
 6186SOL    HW129897   3.181   3.320   6.815
 6186SOL    HW229898   3.068   3.233   6.737
 6187SOL     OW29899   3.444   2.501   6.058
 6187SOL    HW129900   3.413   2.562   6.131
 6187SOL    HW229901   3.494   2.553   5.989
 6188SOL     OW29902   2.216   3.372   6.915
 6188SOL    HW129903   2.195   3.328   6.828
 6188SOL    HW229904   2.313   3.398   6.918
 6189SOL     OW29905   2.264   2.613   7.184
 6189SOL    HW129906   2.332   2.668   7.137
 6189SOL    HW229907   2.304   2.525   7.211
 6190SOL     OW29908   3.449   2.641   7.256
 6190SOL    HW129909   3.357   2.679   7.251
 6190SOL    HW229910   3.509   2.688   7.191
 6191SOL     OW29911   2.875   1.967   7.356
 6191SOL    HW129912   2.881   2.052   7.304
 6191SOL    HW229913   2.907   1.891   7.299
 6192SOL     OW29914   2.366   1.912   7.326
 6192SOL    HW129915   2.324   1.855   7.256
 6192SOL    HW229916   2.300   1.981   7.358
 6193SOL     OW29917   2.435   2.732   6.615
 6193SOL    HW129918   2.479   2.821   6.606
 6193SOL    HW229919   2.372   2.732   6.692
 6194SOL     OW29920   3.222   2.724   6.631
 6194SOL    HW129921   3.147   2.724   6.565
 6194SOL    HW229922   3.259   2.632   6.640
 6195SOL     OW29923   3.071   2.387   5.861
 6195SOL    HW129924   3.084   2.303   5.915
 6195SOL    HW229925   3.042   2.461   5.921
 6196SOL     OW29926   2.169   2.075   6.817
 6196SOL    HW129927   2.146   2.112   6.907
 6196SOL    HW229928   2.139   1.980   6.811
 6197SOL     OW29929   1.899   3.172   6.868
 6197SOL    HW129930   1.952   3.123   6.936
 6197SOL    HW229931   1.921   3.270   6.873
 6198SOL     OW29932   2.594   2.496   6.650
 6198SOL    HW129933   2.653   2.470   6.574
 6198SOL    HW229934   2.566   2.592   6.639
 6199SOL     OW29935   3.590   2.797   7.440
 6199SOL    HW129936   3.544   2.790   7.351
 6199SOL    HW229937   3.528   2.841   7.506
 6200SOL     OW29938   2.169   1.925   6.204
 6200SOL    HW129939   2.158   2.019   6.237
 6200SOL    HW229940   2.164   1.862   6.281
 6201SOL     OW29941   3.484   2.229   5.960
 6201SOL    HW129942   3.486   2.153   6.024
 6201SOL    HW229943   3.436   2.306   6.000
 6202SOL     OW29944   2.885   2.628   6.552
 6202SOL    HW129945   2.900   2.649   6.648
 6202SOL    HW229946   2.855   2.533   6.543
 6203SOL     OW29947   2.842   3.435   7.286
 6203SOL    HW129948   2.822   3.479   7.198
 6203SOL    HW229949   2.881   3.344   7.270
 6204SOL     OW29950   3.721   3.380   7.191
 6204SOL    HW129951   3.735   3.407   7.096
 6204SOL    HW229952   3.804   3.402   7.244
 6205SOL     OW29953   2.212   2.760   7.390
 6205SOL    HW129954   2.288   2.804   7.438
 6205SOL    HW229955   2.247   2.713   7.308
 6206SOL     OW29956   3.402   2.136   5.711
 6206SOL    HW129957   3.341   2.061   5.734
 6206SOL    HW229958   3.424   2.188   5.794
 6207SOL     OW29959   3.165   2.700   5.628
 6207SOL    HW129960   3.199   2.607   5.643
 6207SOL    HW229961   3.183   2.727   5.533
 6208SOL     OW29962   2.930   3.195   6.435
 6208SOL    HW129963   2.937   3.111   6.380
 6208SOL    HW229964   2.992   3.264   6.399
 6209SOL     OW29965   2.181   2.672   6.535
 6209SOL    HW129966   2.274   2.708   6.540
 6209SOL    HW229967   2.175   2.587   6.587
 6210SOL     OW29968   2.201   2.371   6.592
 6210SOL    HW129969   2.149   2.288   6.575
 6210SOL    HW229970   2.278   2.376   6.528
 6211SOL     OW29971   3.000   2.242   7.264
 6211SOL    HW129972   2.955   2.305   7.328
 6211SOL    HW229973   3.093   2.273   7.247
 6212SOL     OW29974   3.022   2.069   7.063
 6212SOL    HW129975   3.022   2.133   7.140
 6212SOL    HW229976   3.050   2.117   6.980
 6213SOL     OW29977   1.870   3.188   5.786
 6213SOL    HW129978   1.777   3.209   5.755
 6213SOL    HW229979   1.880   3.089   5.799
 6214SOL     OW29980   1.950   3.663   6.513
 6214SOL    HW129981   1.908   3.577   6.486
 6214SOL    HW229982   2.044   3.666   6.479
 6215SOL     OW29983   2.366   3.430   6.496
 6215SOL    HW129984   2.432   3.504   6.505
 6215SOL    HW229985   2.410   3.351   6.454
 6216SOL     OW29986   2.864   2.658   6.824
 6216SOL    HW129987   2.905   2.626   6.910
 6216SOL    HW229988   2.768   2.631   6.821
 6217SOL     OW29989   1.902   2.406   6.700
 6217SOL    HW129990   1.987   2.373   6.659
 6217SOL    HW229991   1.915   2.421   6.798
 6218SOL     OW29992   2.051   2.382   7.308
 6218SOL    HW129993   2.110   2.342   7.238
 6218SOL    HW229994   1.993   2.453   7.267
 6219SOL     OW29995   3.231   2.812   7.246
 6219SOL    HW129996   3.270   2.901   7.266
 6219SOL    HW229997   3.241   2.792   7.149
 6220SOL     OW29998   2.677   2.434   5.911
 6220SOL    HW129999   2.684   2.345   5.865
 6220SOL    HW230000   2.583   2.468   5.903
 6221SOL     OW30001   3.519   2.466   6.792
 6221SOL    HW130002   3.481   2.397   6.854
 6221SOL    HW230003   3.601   2.430   6.748
 6222SOL     OW30004   2.114   3.426   7.330
 6222SOL    HW130005   2.084   3.483   7.406
 6222SOL    HW230006   2.107   3.329   7.356
 6223SOL     OW30007   2.533   2.326   6.855
 6223SOL    HW130008   2.499   2.237   6.825
 6223SOL    HW230009   2.559   2.380   6.775
 6224SOL     OW30010   2.792   3.540   7.051
 6224SOL    HW130011   2.768   3.522   6.956
 6224SOL    HW230012   2.822   3.634   7.061
 6225SOL     OW30013   2.335   2.362   5.777
 6225SOL    HW130014   2.396   2.442   5.781
 6225SOL    HW230015   2.240   2.393   5.784
 6226SOL     OW30016   2.021   2.999   7.052
 6226SOL    HW130017   2.043   2.938   7.128
 6226SOL    HW230018   2.031   2.950   6.966
 6227SOL     OW30019   3.209   2.921   6.820
 6227SOL    HW130020   3.233   2.858   6.746
 6227SOL    HW230021   3.119   2.961   6.802
 6228SOL     OW30022   3.164   2.717   5.895
 6228SOL    HW130023   3.078   2.686   5.937
 6228SOL    HW230024   3.160   2.703   5.796
 6229SOL     OW30025   3.621   3.609   6.740
 6229SOL    HW130026   3.682   3.639   6.667
 6229SOL    HW230027   3.583   3.520   6.718
 6230SOL     OW30028   3.114   3.593   6.714
 6230SOL    HW130029   3.198   3.598   6.660
 6230SOL    HW230030   3.091   3.497   6.732
 6231SOL     OW30031   1.945   3.120   6.608
 6231SOL    HW130032   1.940   3.119   6.708
 6231SOL    HW230033   1.862   3.079   6.570
 6232SOL     OW30034   2.550   3.524   7.302
 6232SOL    HW130035   2.494   3.605   7.311
 6232SOL    HW230036   2.602   3.528   7.216
 6233SOL     OW30037   3.588   1.997   6.109
 6233SOL    HW130038   3.661   1.980   6.042
 6233SOL    HW230039   3.557   1.910   6.147
 6234SOL     OW30040   3.250   3.435   6.063
 6234SOL    HW130041   3.317   3.447   5.989
 6234SOL    HW230042   3.210   3.524   6.086
 6235SOL     OW30043   1.992   3.656   7.437
 6235SOL    HW130044   1.951   3.582   7.490
 6235SOL    HW230045   2.056   3.707   7.495
 6236SOL     OW30046   3.142   2.789   6.258
 6236SOL    HW130047   3.202   2.708   6.260
 6236SOL    HW230048   3.182   2.858   6.198
 6237SOL     OW30049   2.692   3.135   7.008
 6237SOL    HW130050   2.687   3.168   7.103
 6237SOL    HW230051   2.606   3.154   6.962
 6238SOL     OW30052   2.534   3.478   5.740
 6238SOL    HW130053   2.543   3.488   5.641
 6238SOL    HW230054   2.494   3.389   5.761
 6239SOL     OW30055   3.512   3.582   6.980
 6239SOL    HW130056   3.565   3.592   6.896
 6239SOL    HW230057   3.485   3.672   7.014
 6240SOL     OW30058   3.703   2.037   6.549
 6240SOL    HW130059   3.742   1.952   6.513
 6240SOL    HW230060   3.605   2.039   6.530
 6241SOL     OW30061   2.125   2.188   6.306
 6241SOL    HW130062   2.046   2.239   6.272
 6241SOL    HW230063   2.116   2.173   6.404
 6242SOL     OW30064   3.056   3.474   5.617
 6242SOL    HW130065   3.062   3.381   5.654
 6242SOL    HW230066   2.997   3.474   5.537
 6243SOL     OW30067   2.684   2.864   6.958
 6243SOL    HW130068   2.724   2.863   6.866
 6243SOL    HW230069   2.694   2.956   6.998
 6244SOL     OW30070   2.778   2.772   5.877
 6244SOL    HW130071   2.841   2.810   5.809
 6244SOL    HW230072   2.818   2.689   5.916
 6245SOL     OW30073   3.366   3.469   5.630
 6245SOL    HW130074   3.274   3.506   5.637
 6245SOL    HW230075   3.404   3.489   5.540
 6246SOL     OW30076   2.234   3.150   7.076
 6246SOL    HW130077   2.221   3.243   7.042
 6246SOL    HW230078   2.150   3.098   7.063
 6247SOL     OW30079   3.476   3.154   6.875
 6247SOL    HW130080   3.536   3.157   6.955
 6247SOL    HW230081   3.401   3.218   6.888
 6248SOL     OW30082   2.901   2.960   6.282
 6248SOL    HW130083   2.831   2.913   6.336
 6248SOL    HW230084   2.960   2.892   6.239
 6249SOL     OW30085   2.876   2.098   6.557
 6249SOL    HW130086   2.868   2.062   6.464
 6249SOL    HW230087   2.874   2.022   6.622
 6250SOL     OW30088   2.452   3.349   6.077
 6250SOL    HW130089   2.494   3.291   6.007
 6250SOL    HW230090   2.408   3.428   6.033
 6251SOL     OW30091   3.571   2.247   6.967
 6251SOL    HW130092   3.644   2.316   6.971
 6251SOL    HW230093   3.599   2.172   6.908
 6252SOL     OW30094   2.117   3.210   5.876
 6252SOL    HW130095   2.021   3.211   5.849
 6252SOL    HW230096   2.129   3.263   5.960
 6253SOL     OW30097   1.967   2.875   7.312
 6253SOL    HW130098   1.890   2.842   7.366
 6253SOL    HW230099   2.052   2.845   7.354
 6254SOL     OW30100   2.534   2.065   7.075
 6254SOL    HW130101   2.624   2.049   7.035
 6254SOL    HW230102   2.542   2.070   7.174
 6255SOL     OW30103   1.937   2.207   5.619
 6255SOL    HW130104   1.845   2.179   5.590
 6255SOL    HW230105   1.968   2.284   5.563
 6256SOL     OW30106   3.302   2.718   6.984
 6256SOL    HW130107   3.245   2.770   6.921
 6256SOL    HW230108   3.398   2.730   6.960
 6257SOL     OW30109   1.934   2.028   5.904
 6257SOL    HW130110   1.917   2.111   5.850
 6257SOL    HW230111   2.024   1.991   5.882
 6258SOL     OW30112   3.045   3.197   5.705
 6258SOL    HW130113   2.946   3.186   5.707
 6258SOL    HW230114   3.079   3.212   5.798
 6259SOL     OW30115   2.475   2.704   7.017
 6259SOL    HW130116   2.531   2.785   7.000
 6259SOL    HW230117   2.534   2.624   7.020
 6260SOL     OW30118   3.355   3.629   6.545
 6260SOL    HW130119   3.388   3.693   6.476
 6260SOL    HW230120   3.421   3.623   6.620
 6261SOL     OW30121   2.578   2.427   7.294
 6261SOL    HW130122   2.597   2.492   7.368
 6261SOL    HW230123   2.638   2.347   7.303
 6262SOL     OW30124   3.312   3.082   7.219
 6262SOL    HW130125   3.303   3.072   7.318
 6262SOL    HW230126   3.408   3.075   7.193
 6263SOL     OW30127   2.252   3.603   7.146
 6263SOL    HW130128   2.161   3.644   7.144
 6263SOL    HW230129   2.245   3.509   7.178
 6264SOL     OW30130   3.536   2.745   6.840
 6264SOL    HW130131   3.509   2.656   6.803
 6264SOL    HW230132   3.537   2.813   6.767
 6265SOL     OW30133   3.087   2.187   6.035
 6265SOL    HW130134   3.152   2.113   6.024
 6265SOL    HW230135   3.107   2.237   6.119
 6266SOL     OW30136   2.456   2.607   6.238
 6266SOL    HW130137   2.506   2.692   6.219
 6266SOL    HW230138   2.368   2.609   6.190
 6267SOL     OW30139   3.639   2.204   7.228
 6267SOL    HW130140   3.622   2.235   7.134
 6267SOL    HW230141   3.555   2.167   7.266
 6268SOL     OW30142   3.592   2.796   7.103
 6268SOL    HW130143   3.630   2.887   7.118
 6268SOL    HW230144   3.584   2.779   7.004
 6269SOL     OW30145   2.721   3.236   5.602
 6269SOL    HW130146   2.675   3.251   5.690
 6269SOL    HW230147   2.765   3.321   5.572
 6270SOL     OW30148   2.523   3.652   6.539
 6270SOL    HW130149   2.477   3.740   6.526
 6270SOL    HW230150   2.622   3.664   6.532
 6271SOL     OW30151   2.721   2.818   6.447
 6271SOL    HW130152   2.775   2.749   6.495
 6271SOL    HW230153   2.689   2.887   6.513
 6272SOL     OW30154   2.945   2.846   5.673
 6272SOL    HW130155   2.922   2.899   5.591
 6272SOL    HW230156   3.026   2.790   5.654
 6273SOL     OW30157   3.723   3.431   6.437
 6273SOL    HW130158   3.652   3.419   6.367
 6273SOL    HW230159   3.724   3.352   6.497
 6274SOL     OW30160   2.083   3.176   7.430
 6274SOL    HW130161   2.018   3.103   7.409
 6274SOL    HW230162   2.087   3.190   7.528
 6275SOL     OW30163   1.941   3.102   6.239
 6275SOL    HW130164   1.940   3.055   6.327
 6275SOL    HW230165   2.023   3.074   6.188
 6276SOL     OW30166   2.534   3.253   7.210
 6276SOL    HW130167   2.456   3.203   7.248
 6276SOL    HW230168   2.531   3.348   7.241
 6277SOL     OW30169   3.686   2.054   6.813
 6277SOL    HW130170   3.682   1.964   6.857
 6277SOL    HW230171   3.689   2.043   6.714
 6278SOL     OW30172   2.290   2.286   6.106
 6278SOL    HW130173   2.320   2.214   6.044
 6278SOL    HW230174   2.251   2.246   6.189
 6279SOL     OW30175   3.567   3.349   6.690
 6279SOL    HW130176   3.474   3.324   6.663
 6279SOL    HW230177   3.593   3.299   6.772
 6280SOL     OW30178   2.179   2.409   6.866
 6280SOL    HW130179   2.217   2.350   6.938
 6280SOL    HW230180   2.219   2.383   6.778
 6281SOL     OW30181   2.674   3.448   6.273
 6281SOL    HW130182   2.706   3.458   6.179
 6281SOL    HW230183   2.595   3.386   6.275
 6282SOL     OW30184   3.286   2.076   6.698
 6282SOL    HW130185   3.338   2.011   6.753
 6282SOL    HW230186   3.237   2.139   6.759
 6283SOL     OW30187   2.863   1.896   6.740
 6283SOL    HW130188   2.800   1.824   6.709
 6283SOL    HW230189   2.956   1.860   6.740
 6284SOL     OW30190   2.632   3.192   5.887
 6284SOL    HW130191   2.586   3.105   5.904
 6284SOL    HW230192   2.723   3.189   5.928
 6285SOL     OW30193   2.480   3.429   6.870
 6285SOL    HW130194   2.475   3.511   6.927
 6285SOL    HW230195   2.569   3.426   6.825
 6286SOL     OW30196   3.214   1.914   5.754
 6286SOL    HW130197   3.249   1.873   5.670
 6286SOL    HW230198   3.124   1.876   5.774
 6287SOL     OW30199   3.162   2.315   6.277
 6287SOL    HW130200   3.103   2.395   6.281
 6287SOL    HW230201   3.177   2.280   6.370
 6288SOL     OW30202   3.455   2.083   6.468
 6288SOL    HW130203   3.371   2.082   6.522
 6288SOL    HW230204   3.457   2.166   6.412
 6289SOL     OW30205   1.901   2.939   5.886
 6289SOL    HW130206   2.000   2.928   5.877
 6289SOL    HW230207   1.861   2.853   5.918
 6290SOL     OW30208   2.737   3.508   5.923
 6290SOL    HW130209   2.660   3.473   5.869
 6290SOL    HW230210   2.705   3.579   5.985
 6291SOL     OW30211   2.092   2.490   7.561
 6291SOL    HW130212   1.999   2.488   7.598
 6291SOL    HW230213   2.093   2.451   7.469
 6292SOL     OW30214   2.087   2.137   8.444
 6292SOL    HW130215   2.122   2.120   8.536
 6292SOL    HW230216   1.999   2.092   8.432
 6293SOL     OW30217   1.881   2.230   8.095
 6293SOL    HW130218   1.799   2.273   8.134
 6293SOL    HW230219   1.853   2.157   8.032
 6294SOL     OW30220   2.431   3.137   8.613
 6294SOL    HW130221   2.338   3.130   8.576
 6294SOL    HW230222   2.442   3.226   8.657
 6295SOL     OW30223   3.417   3.373   8.151
 6295SOL    HW130224   3.360   3.357   8.232
 6295SOL    HW230225   3.358   3.383   8.071
 6296SOL     OW30226   2.997   2.565   8.165
 6296SOL    HW130227   3.054   2.643   8.140
 6296SOL    HW230228   2.937   2.591   8.241
 6297SOL     OW30229   3.617   2.469   7.679
 6297SOL    HW130230   3.605   2.456   7.580
 6297SOL    HW230231   3.587   2.388   7.728
 6298SOL     OW30232   2.630   3.006   8.471
 6298SOL    HW130233   2.552   3.023   8.531
 6298SOL    HW230234   2.664   3.093   8.435
 6299SOL     OW30235   2.712   2.660   9.271
 6299SOL    HW130236   2.708   2.736   9.336
 6299SOL    HW230237   2.734   2.696   9.180
 6300SOL     OW30238   2.547   2.874   8.113
 6300SOL    HW130239   2.616   2.858   8.183
 6300SOL    HW230240   2.474   2.931   8.151
 6301SOL     OW30241   2.548   3.023   9.251
 6301SOL    HW130242   2.608   3.102   9.265
 6301SOL    HW230243   2.462   3.054   9.210
 6302SOL     OW30244   2.197   3.297   8.509
 6302SOL    HW130245   2.119   3.266   8.456
 6302SOL    HW230246   2.255   3.355   8.452
 6303SOL     OW30247   3.322   3.367   8.787
 6303SOL    HW130248   3.346   3.461   8.813
 6303SOL    HW230249   3.306   3.313   8.869
 6304SOL     OW30250   2.300   2.254   8.947
 6304SOL    HW130251   2.382   2.198   8.956
 6304SOL    HW230252   2.219   2.196   8.951
 6305SOL     OW30253   3.465   2.309   8.185
 6305SOL    HW130254   3.391   2.355   8.135
 6305SOL    HW230255   3.516   2.377   8.238
 6306SOL     OW30256   2.093   3.575   7.931
 6306SOL    HW130257   2.127   3.652   7.985
 6306SOL    HW230258   2.137   3.575   7.841
 6307SOL     OW30259   2.989   3.203   9.138
 6307SOL    HW130260   3.036   3.203   9.226
 6307SOL    HW230261   2.941   3.116   9.127
 6308SOL     OW30262   2.092   3.296   7.986
 6308SOL    HW130263   2.066   3.392   7.986
 6308SOL    HW230264   2.021   3.242   8.031
 6309SOL     OW30265   2.102   2.953   8.334
 6309SOL    HW130266   2.116   2.869   8.386
 6309SOL    HW230267   2.047   3.017   8.389
 6310SOL     OW30268   2.482   3.648   8.887
 6310SOL    HW130269   2.390   3.631   8.922
 6310SOL    HW230270   2.510   3.740   8.913
 6311SOL     OW30271   2.468   2.826   7.571
 6311SOL    HW130272   2.475   2.910   7.517
 6311SOL    HW230273   2.514   2.839   7.659
 6312SOL     OW30274   3.456   1.976   8.928
 6312SOL    HW130275   3.438   2.043   8.856
 6312SOL    HW230276   3.453   2.022   9.017
 6313SOL     OW30277   1.984   2.505   8.011
 6313SOL    HW130278   1.939   2.417   8.028
 6313SOL    HW230279   1.983   2.559   8.095
 6314SOL     OW30280   3.704   3.629   7.807
 6314SOL    HW130281   3.758   3.600   7.887
 6314SOL    HW230282   3.734   3.719   7.778
 6315SOL     OW30283   1.889   3.458   7.565
 6315SOL    HW130284   1.870   3.362   7.586
 6315SOL    HW230285   1.856   3.516   7.640
 6316SOL     OW30286   3.551   2.784   8.060
 6316SOL    HW130287   3.646   2.755   8.068
 6316SOL    HW230288   3.543   2.849   7.985
 6317SOL     OW30289   3.503   2.970   7.880
 6317SOL    HW130290   3.589   2.972   7.828
 6317SOL    HW230291   3.517   3.017   7.968
 6318SOL     OW30292   1.975   2.599   9.045
 6318SOL    HW130293   2.063   2.586   9.090
 6318SOL    HW230294   1.962   2.696   9.023
 6319SOL     OW30295   2.475   3.227   8.174
 6319SOL    HW130296   2.426   3.140   8.183
 6319SOL    HW230297   2.452   3.270   8.087
 6320SOL     OW30298   3.155   3.090   8.871
 6320SOL    HW130299   3.192   3.017   8.813
 6320SOL    HW230300   3.207   3.095   8.956
 6321SOL     OW30301   2.671   1.866   7.950
 6321SOL    HW130302   2.711   1.957   7.941
 6321SOL    HW230303   2.571   1.874   7.956
 6322SOL     OW30304   2.059   2.838   8.712
 6322SOL    HW130305   2.148   2.793   8.698
 6322SOL    HW230306   1.986   2.773   8.693
 6323SOL     OW30307   3.387   2.861   7.638
 6323SOL    HW130308   3.324   2.785   7.651
 6323SOL    HW230309   3.435   2.879   7.724
 6324SOL     OW30310   3.049   3.654   9.064
 6324SOL    HW130311   3.073   3.714   8.988
 6324SOL    HW230312   3.056   3.559   9.034
 6325SOL     OW30313   2.179   2.113   9.249
 6325SOL    HW130314   2.250   2.184   9.255
 6325SOL    HW230315   2.091   2.152   9.277
 6326SOL     OW30316   3.328   3.279   8.401
 6326SOL    HW130317   3.269   3.285   8.481
 6326SOL    HW230318   3.313   3.191   8.355
 6327SOL     OW30319   3.529   3.576   8.020
 6327SOL    HW130320   3.488   3.553   7.932
 6327SOL    HW230321   3.511   3.502   8.085
 6328SOL     OW30322   2.460   2.591   7.718
 6328SOL    HW130323   2.484   2.660   7.650
 6328SOL    HW230324   2.382   2.624   7.772
 6329SOL     OW30325   3.143   2.207   8.392
 6329SOL    HW130326   3.057   2.157   8.379
 6329SOL    HW230327   3.205   2.153   8.448
 6330SOL     OW30328   3.438   3.524   7.755
 6330SOL    HW130329   3.527   3.570   7.758
 6330SOL    HW230330   3.417   3.500   7.660
 6331SOL     OW30331   2.669   2.467   8.913
 6331SOL    HW130332   2.622   2.464   9.002
 6331SOL    HW230333   2.618   2.412   8.847
 6332SOL     OW30334   3.256   2.331   9.122
 6332SOL    HW130335   3.236   2.374   9.210
 6332SOL    HW230336   3.334   2.269   9.131
 6333SOL     OW30337   2.835   2.752   9.020
 6333SOL    HW130338   2.881   2.668   8.991
 6333SOL    HW230339   2.779   2.786   8.945
 6334SOL     OW30340   2.853   2.272   8.690
 6334SOL    HW130341   2.776   2.306   8.744
 6334SOL    HW230342   2.819   2.221   8.611
 6335SOL     OW30343   2.903   2.563   7.877
 6335SOL    HW130344   2.929   2.559   7.973
 6335SOL    HW230345   2.818   2.512   7.863
 6336SOL     OW30346   1.938   2.673   8.237
 6336SOL    HW130347   2.037   2.661   8.246
 6336SOL    HW230348   1.914   2.768   8.258
 6337SOL     OW30349   2.727   2.210   7.643
 6337SOL    HW130350   2.786   2.273   7.594
 6337SOL    HW230351   2.746   2.116   7.614
 6338SOL     OW30352   3.581   2.447   9.279
 6338SOL    HW130353   3.555   2.536   9.243
 6338SOL    HW230354   3.579   2.379   9.206
 6339SOL     OW30355   3.224   3.006   7.993
 6339SOL    HW130356   3.307   2.977   7.945
 6339SOL    HW230357   3.175   3.073   7.937
 6340SOL     OW30358   2.412   2.058   8.333
 6340SOL    HW130359   2.407   2.053   8.433
 6340SOL    HW230360   2.414   2.154   8.304
 6341SOL     OW30361   2.870   3.318   7.925
 6341SOL    HW130362   2.824   3.390   7.873
 6341SOL    HW230363   2.866   3.338   8.023
 6342SOL     OW30364   2.213   3.663   8.301
 6342SOL    HW130365   2.263   3.577   8.307
 6342SOL    HW230366   2.278   3.740   8.298
 6343SOL     OW30367   3.657   2.928   8.321
 6343SOL    HW130368   3.595   2.913   8.245
 6343SOL    HW230369   3.605   2.939   8.406
 6344SOL     OW30370   3.089   3.412   8.954
 6344SOL    HW130371   3.095   3.335   9.018
 6344SOL    HW230372   3.037   3.386   8.874
 6345SOL     OW30373   2.183   2.805   7.690
 6345SOL    HW130374   2.265   2.844   7.648
 6345SOL    HW230375   2.156   2.723   7.641
 6346SOL     OW30376   3.320   2.597   8.176
 6346SOL    HW130377   3.315   2.532   8.251
 6346SOL    HW230378   3.400   2.656   8.189
 6347SOL     OW30379   2.323   3.128   9.175
 6347SOL    HW130380   2.273   3.129   9.089
 6347SOL    HW230381   2.260   3.110   9.251
 6348SOL     OW30382   2.973   3.638   7.685
 6348SOL    HW130383   2.913   3.576   7.735
 6348SOL    HW230384   3.004   3.594   7.600
 6349SOL     OW30385   2.064   2.147   8.946
 6349SOL    HW130386   1.984   2.207   8.933
 6349SOL    HW230387   2.054   2.098   9.032
 6350SOL     OW30388   3.494   3.239   7.529
 6350SOL    HW130389   3.462   3.333   7.519
 6350SOL    HW230390   3.418   3.176   7.517
 6351SOL     OW30391   2.326   3.605   7.771
 6351SOL    HW130392   2.359   3.644   7.857
 6351SOL    HW230393   2.402   3.598   7.706
 6352SOL     OW30394   3.262   1.969   7.874
 6352SOL    HW130395   3.238   1.932   7.784
 6352SOL    HW230396   3.361   1.985   7.878
 6353SOL     OW30397   2.111   3.647   8.689
 6353SOL    HW130398   2.168   3.582   8.739
 6353SOL    HW230399   2.095   3.614   8.596
 6354SOL     OW30400   2.802   3.560   8.352
 6354SOL    HW130401   2.882   3.503   8.373
 6354SOL    HW230402   2.753   3.520   8.275
 6355SOL     OW30403   2.244   2.562   7.928
 6355SOL    HW130404   2.289   2.472   7.925
 6355SOL    HW230405   2.150   2.551   7.961
 6356SOL     OW30406   3.409   2.084   9.177
 6356SOL    HW130407   3.404   2.121   9.269
 6356SOL    HW230408   3.337   2.015   9.165
 6357SOL     OW30409   2.476   1.984   7.565
 6357SOL    HW130410   2.574   1.962   7.572
 6357SOL    HW230411   2.445   1.967   7.472
 6358SOL     OW30412   2.643   2.126   9.197
 6358SOL    HW130413   2.710   2.065   9.240
 6358SOL    HW230414   2.570   2.145   9.262
 6359SOL     OW30415   2.750   3.376   8.643
 6359SOL    HW130416   2.727   3.351   8.549
 6359SOL    HW230417   2.811   3.307   8.682
 6360SOL     OW30418   3.213   2.452   8.881
 6360SOL    HW130419   3.241   2.409   8.966
 6360SOL    HW230420   3.238   2.548   8.882
 6361SOL     OW30421   2.665   3.264   8.372
 6361SOL    HW130422   2.755   3.278   8.330
 6361SOL    HW230423   2.594   3.266   8.301
 6362SOL     OW30424   2.784   2.365   8.347
 6362SOL    HW130425   2.759   2.356   8.251
 6362SOL    HW230426   2.832   2.283   8.378
 6363SOL     OW30427   2.401   1.926   7.960
 6363SOL    HW130428   2.320   1.927   8.018
 6363SOL    HW230429   2.404   2.009   7.905
 6364SOL     OW30430   3.296   3.050   7.489
 6364SOL    HW130431   3.328   2.974   7.546
 6364SOL    HW230432   3.204   3.077   7.519
 6365SOL     OW30433   2.159   1.897   7.619
 6365SOL    HW130434   2.208   1.981   7.598
 6365SOL    HW230435   2.221   1.832   7.664
 6366SOL     OW30436   2.797   2.098   7.928
 6366SOL    HW130437   2.749   2.139   7.850
 6366SOL    HW230438   2.896   2.096   7.909
 6367SOL     OW30439   2.938   2.545   8.912
 6367SOL    HW130440   2.858   2.484   8.915
 6367SOL    HW230441   3.019   2.492   8.888
 6368SOL     OW30442   3.089   3.432   8.241
 6368SOL    HW130443   3.110   3.506   8.176
 6368SOL    HW230444   3.157   3.432   8.314
 6369SOL     OW30445   2.321   3.014   8.189
 6369SOL    HW130446   2.250   2.987   8.254
 6369SOL    HW230447   2.295   2.986   8.096
 6370SOL     OW30448   3.133   3.659   8.039
 6370SOL    HW130449   3.177   3.723   7.975
 6370SOL    HW230450   3.083   3.711   8.109
 6371SOL     OW30451   2.894   2.411   7.464
 6371SOL    HW130452   2.853   2.493   7.425
 6371SOL    HW230453   2.958   2.437   7.537
 6372SOL     OW30454   1.940   2.418   8.834
 6372SOL    HW130455   2.032   2.417   8.793
 6372SOL    HW230456   1.934   2.492   8.901
 6373SOL     OW30457   2.423   2.084   8.595
 6373SOL    HW130458   2.461   2.000   8.632
 6373SOL    HW230459   2.335   2.103   8.639
 6374SOL     OW30460   2.728   2.316   8.090
 6374SOL    HW130461   2.696   2.388   8.028
 6374SOL    HW230462   2.752   2.235   8.037
 6375SOL     OW30463   2.879   1.901   8.201
 6375SOL    HW130464   2.807   1.906   8.132
 6375SOL    HW230465   2.855   1.832   8.270
 6376SOL     OW30466   3.291   3.035   8.315
 6376SOL    HW130467   3.236   2.951   8.308
 6376SOL    HW230468   3.317   3.064   8.223
 6377SOL     OW30469   3.328   2.452   8.440
 6377SOL    HW130470   3.298   2.357   8.447
 6377SOL    HW230471   3.401   2.468   8.506
 6378SOL     OW30472   3.719   2.695   7.825
 6378SOL    HW130473   3.761   2.631   7.889
 6378SOL    HW230474   3.681   2.644   7.747
 6379SOL     OW30475   2.350   3.247   7.622
 6379SOL    HW130476   2.263   3.232   7.669
 6379SOL    HW230477   2.333   3.273   7.527
 6380SOL     OW30478   3.526   3.142   8.105
 6380SOL    HW130479   3.625   3.150   8.119
 6380SOL    HW230480   3.481   3.226   8.136
 6381SOL     OW30481   3.252   2.437   7.526
 6381SOL    HW130482   3.198   2.416   7.607
 6381SOL    HW230483   3.343   2.396   7.535
 6382SOL     OW30484   3.616   3.085   9.036
 6382SOL    HW130485   3.707   3.046   9.023
 6382SOL    HW230486   3.624   3.181   9.060
 6383SOL     OW30487   2.926   3.209   8.788
 6383SOL    HW130488   2.846   3.186   8.843
 6383SOL    HW230489   3.009   3.183   8.837
 6384SOL     OW30490   3.454   3.491   9.073
 6384SOL    HW130491   3.481   3.525   8.983
 6384SOL    HW230492   3.533   3.453   9.119
 6385SOL     OW30493   2.973   3.057   8.548
 6385SOL    HW130494   2.933   3.101   8.629
 6385SOL    HW230495   2.932   3.094   8.465
 6386SOL     OW30496   3.500   2.961   8.527
 6386SOL    HW130497   3.505   3.042   8.586
 6386SOL    HW230498   3.414   2.963   8.476
 6387SOL     OW30499   2.777   1.951   8.850
 6387SOL    HW130500   2.802   1.931   8.755
 6387SOL    HW230501   2.849   2.007   8.892
 6388SOL     OW30502   2.842   2.978   9.167
 6388SOL    HW130503   2.743   2.984   9.177
 6388SOL    HW230504   2.865   2.898   9.111
 6389SOL     OW30505   2.567   2.912   7.816
 6389SOL    HW130506   2.553   2.919   7.915
 6389SOL    HW230507   2.651   2.861   7.798
 6390SOL     OW30508   2.272   2.675   8.699
 6390SOL    HW130509   2.358   2.687   8.749
 6390SOL    HW230510   2.230   2.588   8.726
 6391SOL     OW30511   3.136   2.248   8.710
 6391SOL    HW130512   3.157   2.322   8.774
 6391SOL    HW230513   3.047   2.265   8.667
 6392SOL     OW30514   1.926   3.426   8.779
 6392SOL    HW130515   1.880   3.508   8.745
 6392SOL    HW230516   2.024   3.445   8.788
 6393SOL     OW30517   2.229   2.962   7.949
 6393SOL    HW130518   2.222   3.045   7.893
 6393SOL    HW230519   2.233   2.882   7.889
 6394SOL     OW30520   2.428   2.399   8.313
 6394SOL    HW130521   2.440   2.465   8.239
 6394SOL    HW230522   2.474   2.433   8.396
 6395SOL     OW30523   3.114   3.210   7.836
 6395SOL    HW130524   3.164   3.287   7.876
 6395SOL    HW230525   3.019   3.212   7.868
 6396SOL     OW30526   3.134   3.307   8.590
 6396SOL    HW130527   3.181   3.320   8.677
 6396SOL    HW230528   3.068   3.233   8.599
 6397SOL     OW30529   3.444   2.501   7.920
 6397SOL    HW130530   3.413   2.562   7.993
 6397SOL    HW230531   3.494   2.553   7.851
 6398SOL     OW30532   2.216   3.372   8.777
 6398SOL    HW130533   2.195   3.328   8.690
 6398SOL    HW230534   2.313   3.398   8.780
 6399SOL     OW30535   2.264   2.613   9.046
 6399SOL    HW130536   2.332   2.668   8.999
 6399SOL    HW230537   2.304   2.525   9.073
 6400SOL     OW30538   3.449   2.641   9.118
 6400SOL    HW130539   3.357   2.679   9.113
 6400SOL    HW230540   3.509   2.688   9.053
 6401SOL     OW30541   2.366   1.912   9.188
 6401SOL    HW130542   2.324   1.855   9.118
 6401SOL    HW230543   2.300   1.981   9.220
 6402SOL     OW30544   2.435   2.732   8.477
 6402SOL    HW130545   2.479   2.821   8.468
 6402SOL    HW230546   2.372   2.732   8.554
 6403SOL     OW30547   3.222   2.724   8.493
 6403SOL    HW130548   3.147   2.724   8.427
 6403SOL    HW230549   3.259   2.632   8.502
 6404SOL     OW30550   3.071   2.387   7.723
 6404SOL    HW130551   3.084   2.303   7.777
 6404SOL    HW230552   3.042   2.461   7.783
 6405SOL     OW30553   2.169   2.075   8.679
 6405SOL    HW130554   2.146   2.112   8.769
 6405SOL    HW230555   2.139   1.980   8.673
 6406SOL     OW30556   1.899   3.172   8.730
 6406SOL    HW130557   1.952   3.123   8.798
 6406SOL    HW230558   1.921   3.270   8.735
 6407SOL     OW30559   2.594   2.496   8.512
 6407SOL    HW130560   2.653   2.470   8.436
 6407SOL    HW230561   2.566   2.592   8.501
 6408SOL     OW30562   3.590   2.797   9.302
 6408SOL    HW130563   3.544   2.790   9.213
 6408SOL    HW230564   3.528   2.841   9.368
 6409SOL     OW30565   2.169   1.925   8.066
 6409SOL    HW130566   2.158   2.019   8.099
 6409SOL    HW230567   2.164   1.862   8.143
 6410SOL     OW30568   3.484   2.229   7.822
 6410SOL    HW130569   3.486   2.153   7.886
 6410SOL    HW230570   3.436   2.306   7.862
 6411SOL     OW30571   2.885   2.628   8.414
 6411SOL    HW130572   2.900   2.649   8.510
 6411SOL    HW230573   2.855   2.533   8.405
 6412SOL     OW30574   2.842   3.435   9.148
 6412SOL    HW130575   2.822   3.479   9.060
 6412SOL    HW230576   2.881   3.344   9.132
 6413SOL     OW30577   3.721   3.380   9.053
 6413SOL    HW130578   3.735   3.407   8.958
 6413SOL    HW230579   3.804   3.402   9.106
 6414SOL     OW30580   2.212   2.760   9.252
 6414SOL    HW130581   2.288   2.804   9.300
 6414SOL    HW230582   2.247   2.713   9.170
 6415SOL     OW30583   3.402   2.136   7.573
 6415SOL    HW130584   3.341   2.061   7.596
 6415SOL    HW230585   3.424   2.188   7.656
 6416SOL     OW30586   3.165   2.700   7.490
 6416SOL    HW130587   3.199   2.607   7.505
 6416SOL    HW230588   3.183   2.727   7.395
 6417SOL     OW30589   2.930   3.195   8.297
 6417SOL    HW130590   2.937   3.111   8.242
 6417SOL    HW230591   2.992   3.264   8.261
 6418SOL     OW30592   2.181   2.672   8.397
 6418SOL    HW130593   2.274   2.708   8.402
 6418SOL    HW230594   2.175   2.587   8.449
 6419SOL     OW30595   2.201   2.371   8.454
 6419SOL    HW130596   2.149   2.288   8.437
 6419SOL    HW230597   2.278   2.376   8.390
 6420SOL     OW30598   3.000   2.242   9.126
 6420SOL    HW130599   2.955   2.305   9.190
 6420SOL    HW230600   3.093   2.273   9.109
 6421SOL     OW30601   3.022   2.069   8.925
 6421SOL    HW130602   3.022   2.133   9.002
 6421SOL    HW230603   3.050   2.117   8.842
 6422SOL     OW30604   1.870   3.188   7.648
 6422SOL    HW130605   1.777   3.209   7.617
 6422SOL    HW230606   1.880   3.089   7.661
 6423SOL     OW30607   1.950   3.663   8.375
 6423SOL    HW130608   1.908   3.577   8.348
 6423SOL    HW230609   2.044   3.666   8.341
 6424SOL     OW30610   2.366   3.430   8.358
 6424SOL    HW130611   2.432   3.504   8.367
 6424SOL    HW230612   2.410   3.351   8.316
 6425SOL     OW30613   2.864   2.658   8.686
 6425SOL    HW130614   2.905   2.626   8.772
 6425SOL    HW230615   2.768   2.631   8.683
 6426SOL     OW30616   1.902   2.406   8.562
 6426SOL    HW130617   1.987   2.373   8.521
 6426SOL    HW230618   1.915   2.421   8.660
 6427SOL     OW30619   2.051   2.382   9.170
 6427SOL    HW130620   2.110   2.342   9.100
 6427SOL    HW230621   1.993   2.453   9.129
 6428SOL     OW30622   3.231   2.812   9.108
 6428SOL    HW130623   3.270   2.901   9.128
 6428SOL    HW230624   3.241   2.792   9.011
 6429SOL     OW30625   2.677   2.434   7.773
 6429SOL    HW130626   2.684   2.345   7.727
 6429SOL    HW230627   2.583   2.468   7.765
 6430SOL     OW30628   3.519   2.466   8.654
 6430SOL    HW130629   3.481   2.397   8.716
 6430SOL    HW230630   3.601   2.430   8.610
 6431SOL     OW30631   2.114   3.426   9.192
 6431SOL    HW130632   2.084   3.483   9.268
 6431SOL    HW230633   2.107   3.329   9.218
 6432SOL     OW30634   2.533   2.326   8.717
 6432SOL    HW130635   2.499   2.237   8.687
 6432SOL    HW230636   2.559   2.380   8.637
 6433SOL     OW30637   2.792   3.540   8.913
 6433SOL    HW130638   2.768   3.522   8.818
 6433SOL    HW230639   2.822   3.634   8.923
 6434SOL     OW30640   2.335   2.362   7.639
 6434SOL    HW130641   2.396   2.442   7.643
 6434SOL    HW230642   2.240   2.393   7.646
 6435SOL     OW30643   2.021   2.999   8.914
 6435SOL    HW130644   2.043   2.938   8.990
 6435SOL    HW230645   2.031   2.950   8.828
 6436SOL     OW30646   3.209   2.921   8.682
 6436SOL    HW130647   3.233   2.858   8.608
 6436SOL    HW230648   3.119   2.961   8.664
 6437SOL     OW30649   3.164   2.717   7.757
 6437SOL    HW130650   3.078   2.686   7.799
 6437SOL    HW230651   3.160   2.703   7.658
 6438SOL     OW30652   3.621   3.609   8.602
 6438SOL    HW130653   3.682   3.639   8.529
 6438SOL    HW230654   3.583   3.520   8.580
 6439SOL     OW30655   3.114   3.593   8.576
 6439SOL    HW130656   3.198   3.598   8.522
 6439SOL    HW230657   3.091   3.497   8.594
 6440SOL     OW30658   1.945   3.120   8.470
 6440SOL    HW130659   1.940   3.119   8.570
 6440SOL    HW230660   1.862   3.079   8.432
 6441SOL     OW30661   2.550   3.524   9.164
 6441SOL    HW130662   2.494   3.605   9.173
 6441SOL    HW230663   2.602   3.528   9.078
 6442SOL     OW30664   3.588   1.997   7.971
 6442SOL    HW130665   3.661   1.980   7.904
 6442SOL    HW230666   3.557   1.910   8.009
 6443SOL     OW30667   3.250   3.435   7.925
 6443SOL    HW130668   3.317   3.447   7.851
 6443SOL    HW230669   3.210   3.524   7.948
 6444SOL     OW30670   3.142   2.789   8.120
 6444SOL    HW130671   3.202   2.708   8.122
 6444SOL    HW230672   3.182   2.858   8.060
 6445SOL     OW30673   2.692   3.135   8.870
 6445SOL    HW130674   2.687   3.168   8.965
 6445SOL    HW230675   2.606   3.154   8.824
 6446SOL     OW30676   2.534   3.478   7.602
 6446SOL    HW130677   2.543   3.488   7.503
 6446SOL    HW230678   2.494   3.389   7.623
 6447SOL     OW30679   3.512   3.582   8.842
 6447SOL    HW130680   3.565   3.592   8.758
 6447SOL    HW230681   3.485   3.672   8.876
 6448SOL     OW30682   3.703   2.037   8.411
 6448SOL    HW130683   3.742   1.952   8.375
 6448SOL    HW230684   3.605   2.039   8.392
 6449SOL     OW30685   2.125   2.188   8.168
 6449SOL    HW130686   2.046   2.239   8.134
 6449SOL    HW230687   2.116   2.173   8.266
 6450SOL     OW30688   3.056   3.474   7.479
 6450SOL    HW130689   3.062   3.381   7.516
 6450SOL    HW230690   2.997   3.474   7.399
 6451SOL     OW30691   2.684   2.864   8.820
 6451SOL    HW130692   2.724   2.863   8.728
 6451SOL    HW230693   2.694   2.956   8.860
 6452SOL     OW30694   2.778   2.772   7.739
 6452SOL    HW130695   2.841   2.810   7.671
 6452SOL    HW230696   2.818   2.689   7.778
 6453SOL     OW30697   3.366   3.469   7.492
 6453SOL    HW130698   3.274   3.506   7.499
 6453SOL    HW230699   3.404   3.489   7.402
 6454SOL     OW30700   2.234   3.150   8.938
 6454SOL    HW130701   2.221   3.243   8.904
 6454SOL    HW230702   2.150   3.098   8.925
 6455SOL     OW30703   3.476   3.154   8.737
 6455SOL    HW130704   3.536   3.157   8.817
 6455SOL    HW230705   3.401   3.218   8.750
 6456SOL     OW30706   2.901   2.960   8.144
 6456SOL    HW130707   2.831   2.913   8.198
 6456SOL    HW230708   2.960   2.892   8.101
 6457SOL     OW30709   2.876   2.098   8.419
 6457SOL    HW130710   2.868   2.062   8.326
 6457SOL    HW230711   2.874   2.022   8.484
 6458SOL     OW30712   2.452   3.349   7.939
 6458SOL    HW130713   2.494   3.291   7.869
 6458SOL    HW230714   2.408   3.428   7.895
 6459SOL     OW30715   3.571   2.247   8.829
 6459SOL    HW130716   3.644   2.316   8.833
 6459SOL    HW230717   3.599   2.172   8.770
 6460SOL     OW30718   2.117   3.210   7.738
 6460SOL    HW130719   2.021   3.211   7.711
 6460SOL    HW230720   2.129   3.263   7.822
 6461SOL     OW30721   1.967   2.875   9.174
 6461SOL    HW130722   1.890   2.842   9.228
 6461SOL    HW230723   2.052   2.845   9.216
 6462SOL     OW30724   2.534   2.065   8.937
 6462SOL    HW130725   2.624   2.049   8.897
 6462SOL    HW230726   2.542   2.070   9.036
 6463SOL     OW30727   1.937   2.207   7.481
 6463SOL    HW130728   1.845   2.179   7.452
 6463SOL    HW230729   1.968   2.284   7.425
 6464SOL     OW30730   3.302   2.718   8.846
 6464SOL    HW130731   3.245   2.770   8.783
 6464SOL    HW230732   3.398   2.730   8.822
 6465SOL     OW30733   1.934   2.028   7.766
 6465SOL    HW130734   1.917   2.111   7.712
 6465SOL    HW230735   2.024   1.991   7.744
 6466SOL     OW30736   3.045   3.197   7.567
 6466SOL    HW130737   2.946   3.186   7.569
 6466SOL    HW230738   3.079   3.212   7.660
 6467SOL     OW30739   2.475   2.704   8.879
 6467SOL    HW130740   2.531   2.785   8.862
 6467SOL    HW230741   2.534   2.624   8.882
 6468SOL     OW30742   3.355   3.629   8.407
 6468SOL    HW130743   3.388   3.693   8.338
 6468SOL    HW230744   3.421   3.623   8.482
 6469SOL     OW30745   2.578   2.427   9.156
 6469SOL    HW130746   2.597   2.492   9.230
 6469SOL    HW230747   2.638   2.347   9.165
 6470SOL     OW30748   3.312   3.082   9.081
 6470SOL    HW130749   3.303   3.072   9.180
 6470SOL    HW230750   3.408   3.075   9.055
 6471SOL     OW30751   3.536   2.745   8.702
 6471SOL    HW130752   3.509   2.656   8.665
 6471SOL    HW230753   3.537   2.813   8.629
 6472SOL     OW30754   3.087   2.187   7.897
 6472SOL    HW130755   3.152   2.113   7.886
 6472SOL    HW230756   3.107   2.237   7.981
 6473SOL     OW30757   2.456   2.607   8.100
 6473SOL    HW130758   2.506   2.692   8.081
 6473SOL    HW230759   2.368   2.609   8.052
 6474SOL     OW30760   3.639   2.204   9.090
 6474SOL    HW130761   3.622   2.235   8.996
 6474SOL    HW230762   3.555   2.167   9.128
 6475SOL     OW30763   3.592   2.796   8.965
 6475SOL    HW130764   3.630   2.887   8.980
 6475SOL    HW230765   3.584   2.779   8.866
 6476SOL     OW30766   2.721   3.236   7.464
 6476SOL    HW130767   2.675   3.251   7.552
 6476SOL    HW230768   2.765   3.321   7.434
 6477SOL     OW30769   2.523   3.652   8.401
 6477SOL    HW130770   2.477   3.740   8.388
 6477SOL    HW230771   2.622   3.664   8.394
 6478SOL     OW30772   2.721   2.818   8.309
 6478SOL    HW130773   2.775   2.749   8.357
 6478SOL    HW230774   2.689   2.887   8.375
 6479SOL     OW30775   2.945   2.846   7.535
 6479SOL    HW130776   2.922   2.899   7.453
 6479SOL    HW230777   3.026   2.790   7.516
 6480SOL     OW30778   3.723   3.431   8.299
 6480SOL    HW130779   3.652   3.419   8.229
 6480SOL    HW230780   3.724   3.352   8.359
 6481SOL     OW30781   2.083   3.176   9.292
 6481SOL    HW130782   2.018   3.103   9.271
 6481SOL    HW230783   2.087   3.190   9.390
 6482SOL     OW30784   1.941   3.102   8.101
 6482SOL    HW130785   1.940   3.055   8.189
 6482SOL    HW230786   2.023   3.074   8.050
 6483SOL     OW30787   2.534   3.253   9.072
 6483SOL    HW130788   2.456   3.203   9.110
 6483SOL    HW230789   2.531   3.348   9.103
 6484SOL     OW30790   3.686   2.054   8.675
 6484SOL    HW130791   3.682   1.964   8.719
 6484SOL    HW230792   3.689   2.043   8.576
 6485SOL     OW30793   2.290   2.286   7.968
 6485SOL    HW130794   2.320   2.214   7.906
 6485SOL    HW230795   2.251   2.246   8.051
 6486SOL     OW30796   3.567   3.349   8.552
 6486SOL    HW130797   3.474   3.324   8.525
 6486SOL    HW230798   3.593   3.299   8.634
 6487SOL     OW30799   2.179   2.409   8.728
 6487SOL    HW130800   2.217   2.350   8.800
 6487SOL    HW230801   2.219   2.383   8.640
 6488SOL     OW30802   2.674   3.448   8.135
 6488SOL    HW130803   2.706   3.458   8.041
 6488SOL    HW230804   2.595   3.386   8.137
 6489SOL     OW30805   3.286   2.076   8.560
 6489SOL    HW130806   3.338   2.011   8.615
 6489SOL    HW230807   3.237   2.139   8.621
 6490SOL     OW30808   2.863   1.896   8.602
 6490SOL    HW130809   2.800   1.824   8.571
 6490SOL    HW230810   2.956   1.860   8.602
 6491SOL     OW30811   2.632   3.192   7.749
 6491SOL    HW130812   2.586   3.105   7.766
 6491SOL    HW230813   2.723   3.189   7.790
 6492SOL     OW30814   2.480   3.429   8.732
 6492SOL    HW130815   2.475   3.511   8.789
 6492SOL    HW230816   2.569   3.426   8.687
 6493SOL     OW30817   3.214   1.914   7.616
 6493SOL    HW130818   3.249   1.873   7.532
 6493SOL    HW230819   3.124   1.876   7.636
 6494SOL     OW30820   3.162   2.315   8.139
 6494SOL    HW130821   3.103   2.395   8.143
 6494SOL    HW230822   3.177   2.280   8.232
 6495SOL     OW30823   3.455   2.083   8.330
 6495SOL    HW130824   3.371   2.082   8.384
 6495SOL    HW230825   3.457   2.166   8.274
 6496SOL     OW30826   1.901   2.939   7.748
 6496SOL    HW130827   2.000   2.928   7.739
 6496SOL    HW230828   1.861   2.853   7.780
 6497SOL     OW30829   2.737   3.508   7.785
 6497SOL    HW130830   2.660   3.473   7.731
 6497SOL    HW230831   2.705   3.579   7.847
 6498SOL     OW30832   2.092   2.490   9.423
 6498SOL    HW130833   1.999   2.488   9.460
 6498SOL    HW230834   2.093   2.451   9.331
 6499SOL     OW30835   2.431   3.137  10.475
 6499SOL    HW130836   2.338   3.130  10.438
 6499SOL    HW230837   2.442   3.226  10.519
 6500SOL     OW30838   2.997   2.565  10.027
 6500SOL    HW130839   3.054   2.643  10.002
 6500SOL    HW230840   2.937   2.591  10.103
 6501SOL     OW30841   3.617   2.469   9.541
 6501SOL    HW130842   3.605   2.456   9.442
 6501SOL    HW230843   3.587   2.388   9.590
 6502SOL     OW30844   2.547   2.874   9.975
 6502SOL    HW130845   2.616   2.858  10.045
 6502SOL    HW230846   2.474   2.931  10.013
 6503SOL     OW30847   2.548   3.023  11.113
 6503SOL    HW130848   2.608   3.102  11.127
 6503SOL    HW230849   2.462   3.054  11.072
 6504SOL     OW30850   3.322   3.367  10.649
 6504SOL    HW130851   3.346   3.461  10.675
 6504SOL    HW230852   3.306   3.313  10.731
 6505SOL     OW30853   3.465   2.309  10.047
 6505SOL    HW130854   3.391   2.355   9.997
 6505SOL    HW230855   3.516   2.377  10.100
 6506SOL     OW30856   2.989   3.203  11.000
 6506SOL    HW130857   3.036   3.203  11.088
 6506SOL    HW230858   2.941   3.116  10.989
 6507SOL     OW30859   2.482   3.648  10.749
 6507SOL    HW130860   2.390   3.631  10.784
 6507SOL    HW230861   2.510   3.740  10.775
 6508SOL     OW30862   2.468   2.826   9.433
 6508SOL    HW130863   2.475   2.910   9.379
 6508SOL    HW230864   2.514   2.839   9.521
 6509SOL     OW30865   3.456   1.976  10.790
 6509SOL    HW130866   3.438   2.043  10.718
 6509SOL    HW230867   3.453   2.022  10.879
 6510SOL     OW30868   1.984   2.505   9.873
 6510SOL    HW130869   1.939   2.417   9.890
 6510SOL    HW230870   1.983   2.559   9.957
 6511SOL     OW30871   3.551   2.784   9.922
 6511SOL    HW130872   3.646   2.755   9.930
 6511SOL    HW230873   3.543   2.849   9.847
 6512SOL     OW30874   3.503   2.970   9.742
 6512SOL    HW130875   3.589   2.972   9.690
 6512SOL    HW230876   3.517   3.017   9.830
 6513SOL     OW30877   3.155   3.090  10.733
 6513SOL    HW130878   3.192   3.017  10.675
 6513SOL    HW230879   3.207   3.095  10.818
 6514SOL     OW30880   3.387   2.861   9.500
 6514SOL    HW130881   3.324   2.785   9.513
 6514SOL    HW230882   3.435   2.879   9.586
 6515SOL     OW30883   3.049   3.654  10.926
 6515SOL    HW130884   3.073   3.714  10.850
 6515SOL    HW230885   3.056   3.559  10.896
 6516SOL     OW30886   3.328   3.279  10.263
 6516SOL    HW130887   3.269   3.285  10.343
 6516SOL    HW230888   3.313   3.191  10.217
 6517SOL     OW30889   2.460   2.591   9.580
 6517SOL    HW130890   2.484   2.660   9.512
 6517SOL    HW230891   2.382   2.624   9.634
 6518SOL     OW30892   3.143   2.207  10.254
 6518SOL    HW130893   3.057   2.157  10.241
 6518SOL    HW230894   3.205   2.153  10.310
 6519SOL     OW30895   3.438   3.524   9.617
 6519SOL    HW130896   3.527   3.570   9.620
 6519SOL    HW230897   3.417   3.500   9.522
 6520SOL     OW30898   2.853   2.272  10.552
 6520SOL    HW130899   2.776   2.306  10.606
 6520SOL    HW230900   2.819   2.221  10.473
 6521SOL     OW30901   2.903   2.563   9.739
 6521SOL    HW130902   2.929   2.559   9.835
 6521SOL    HW230903   2.818   2.512   9.725
 6522SOL     OW30904   1.938   2.673  10.099
 6522SOL    HW130905   2.037   2.661  10.108
 6522SOL    HW230906   1.914   2.768  10.120
 6523SOL     OW30907   2.727   2.210   9.505
 6523SOL    HW130908   2.786   2.273   9.456
 6523SOL    HW230909   2.746   2.116   9.476
 6524SOL     OW30910   3.224   3.006   9.855
 6524SOL    HW130911   3.307   2.977   9.807
 6524SOL    HW230912   3.175   3.073   9.799
 6525SOL     OW30913   2.412   2.058  10.195
 6525SOL    HW130914   2.407   2.053  10.295
 6525SOL    HW230915   2.414   2.154  10.166
 6526SOL     OW30916   2.870   3.318   9.787
 6526SOL    HW130917   2.824   3.390   9.735
 6526SOL    HW230918   2.866   3.338   9.885
 6527SOL     OW30919   3.657   2.928  10.183
 6527SOL    HW130920   3.595   2.913  10.107
 6527SOL    HW230921   3.605   2.939  10.268
 6528SOL     OW30922   3.089   3.412  10.816
 6528SOL    HW130923   3.095   3.335  10.880
 6528SOL    HW230924   3.037   3.386  10.736
 6529SOL     OW30925   2.183   2.805   9.552
 6529SOL    HW130926   2.265   2.844   9.510
 6529SOL    HW230927   2.156   2.723   9.503
 6530SOL     OW30928   3.320   2.597  10.038
 6530SOL    HW130929   3.315   2.532  10.113
 6530SOL    HW230930   3.400   2.656  10.051
 6531SOL     OW30931   2.323   3.128  11.037
 6531SOL    HW130932   2.273   3.129  10.951
 6531SOL    HW230933   2.260   3.110  11.113
 6532SOL     OW30934   2.973   3.638   9.547
 6532SOL    HW130935   2.913   3.576   9.597
 6532SOL    HW230936   3.004   3.594   9.462
 6533SOL     OW30937   3.494   3.239   9.391
 6533SOL    HW130938   3.462   3.333   9.381
 6533SOL    HW230939   3.418   3.176   9.379
 6534SOL     OW30940   2.326   3.605   9.633
 6534SOL    HW130941   2.359   3.644   9.719
 6534SOL    HW230942   2.402   3.598   9.568
 6535SOL     OW30943   3.262   1.969   9.736
 6535SOL    HW130944   3.238   1.932   9.646
 6535SOL    HW230945   3.361   1.985   9.740
 6536SOL     OW30946   2.111   3.647  10.551
 6536SOL    HW130947   2.168   3.582  10.601
 6536SOL    HW230948   2.095   3.614  10.458
 6537SOL     OW30949   2.802   3.560  10.214
 6537SOL    HW130950   2.882   3.503  10.235
 6537SOL    HW230951   2.753   3.520  10.137
 6538SOL     OW30952   2.244   2.562   9.790
 6538SOL    HW130953   2.289   2.472   9.787
 6538SOL    HW230954   2.150   2.551   9.823
 6539SOL     OW30955   3.409   2.084  11.039
 6539SOL    HW130956   3.404   2.121  11.131
 6539SOL    HW230957   3.337   2.015  11.027
 6540SOL     OW30958   2.476   1.984   9.427
 6540SOL    HW130959   2.574   1.962   9.434
 6540SOL    HW230960   2.445   1.967   9.334
 6541SOL     OW30961   2.750   3.376  10.505
 6541SOL    HW130962   2.727   3.351  10.411
 6541SOL    HW230963   2.811   3.307  10.544
 6542SOL     OW30964   2.784   2.365  10.209
 6542SOL    HW130965   2.759   2.356  10.113
 6542SOL    HW230966   2.832   2.283  10.240
 6543SOL     OW30967   3.296   3.050   9.351
 6543SOL    HW130968   3.328   2.974   9.408
 6543SOL    HW230969   3.204   3.077   9.381
 6544SOL     OW30970   2.797   2.098   9.790
 6544SOL    HW130971   2.749   2.139   9.712
 6544SOL    HW230972   2.896   2.096   9.771
 6545SOL     OW30973   2.938   2.545  10.774
 6545SOL    HW130974   2.858   2.484  10.777
 6545SOL    HW230975   3.019   2.492  10.750
 6546SOL     OW30976   3.089   3.432  10.103
 6546SOL    HW130977   3.110   3.506  10.038
 6546SOL    HW230978   3.157   3.432  10.176
 6547SOL     OW30979   3.133   3.659   9.901
 6547SOL    HW130980   3.177   3.723   9.837
 6547SOL    HW230981   3.083   3.711   9.971
 6548SOL     OW30982   2.894   2.411   9.326
 6548SOL    HW130983   2.853   2.493   9.287
 6548SOL    HW230984   2.958   2.437   9.399
 6549SOL     OW30985   2.423   2.084  10.457
 6549SOL    HW130986   2.461   2.000  10.494
 6549SOL    HW230987   2.335   2.103  10.501
 6550SOL     OW30988   2.728   2.316   9.952
 6550SOL    HW130989   2.696   2.388   9.890
 6550SOL    HW230990   2.752   2.235   9.899
 6551SOL     OW30991   3.291   3.035  10.177
 6551SOL    HW130992   3.236   2.951  10.170
 6551SOL    HW230993   3.317   3.064  10.085
 6552SOL     OW30994   3.328   2.452  10.302
 6552SOL    HW130995   3.298   2.357  10.309
 6552SOL    HW230996   3.401   2.468  10.368
 6553SOL     OW30997   3.719   2.695   9.687
 6553SOL    HW130998   3.761   2.631   9.751
 6553SOL    HW230999   3.681   2.644   9.609
 6554SOL     OW31000   2.350   3.247   9.484
 6554SOL    HW131001   2.263   3.232   9.531
 6554SOL    HW231002   2.333   3.273   9.389
 6555SOL     OW31003   3.252   2.437   9.388
 6555SOL    HW131004   3.198   2.416   9.469
 6555SOL    HW231005   3.343   2.396   9.397
 6556SOL     OW31006   2.389   2.118   9.638
 6556SOL    HW131007   2.416   2.059   9.563
 6556SOL    HW231008   2.389   2.213   9.607
 6557SOL     OW31009   2.926   3.209  10.650
 6557SOL    HW131010   2.846   3.186  10.705
 6557SOL    HW231011   3.009   3.183  10.699
 6558SOL     OW31012   2.973   3.057  10.410
 6558SOL    HW131013   2.933   3.101  10.491
 6558SOL    HW231014   2.932   3.094  10.327
 6559SOL     OW31015   2.842   2.978  11.029
 6559SOL    HW131016   2.743   2.984  11.039
 6559SOL    HW231017   2.865   2.898  10.973
 6560SOL     OW31018   2.567   2.912   9.678
 6560SOL    HW131019   2.553   2.919   9.777
 6560SOL    HW231020   2.651   2.861   9.660
 6561SOL     OW31021   2.229   2.962   9.811
 6561SOL    HW131022   2.222   3.045   9.755
 6561SOL    HW231023   2.233   2.882   9.751
 6562SOL     OW31024   2.428   2.399  10.175
 6562SOL    HW131025   2.440   2.465  10.101
 6562SOL    HW231026   2.474   2.433  10.258
 6563SOL     OW31027   3.114   3.210   9.698
 6563SOL    HW131028   3.164   3.287   9.738
 6563SOL    HW231029   3.019   3.212   9.730
 6564SOL     OW31030   3.134   3.307  10.452
 6564SOL    HW131031   3.181   3.320  10.539
 6564SOL    HW231032   3.068   3.233  10.461
 6565SOL     OW31033   3.444   2.501   9.782
 6565SOL    HW131034   3.413   2.562   9.855
 6565SOL    HW231035   3.494   2.553   9.713
 6566SOL     OW31036   2.366   1.912  11.050
 6566SOL    HW131037   2.324   1.855  10.980
 6566SOL    HW231038   2.300   1.981  11.082
 6567SOL     OW31039   3.222   2.724  10.355
 6567SOL    HW131040   3.147   2.724  10.289
 6567SOL    HW231041   3.259   2.632  10.364
 6568SOL     OW31042   3.071   2.387   9.585
 6568SOL    HW131043   3.084   2.303   9.639
 6568SOL    HW231044   3.042   2.461   9.645
 6569SOL     OW31045   2.169   2.075  10.541
 6569SOL    HW131046   2.146   2.112  10.631
 6569SOL    HW231047   2.139   1.980  10.535
 6570SOL     OW31048   1.899   3.172  10.592
 6570SOL    HW131049   1.952   3.123  10.660
 6570SOL    HW231050   1.921   3.270  10.597
 6571SOL     OW31051   2.594   2.496  10.374
 6571SOL    HW131052   2.653   2.470  10.298
 6571SOL    HW231053   2.566   2.592  10.363
 6572SOL     OW31054   3.484   2.229   9.684
 6572SOL    HW131055   3.486   2.153   9.748
 6572SOL    HW231056   3.436   2.306   9.724
 6573SOL     OW31057   2.885   2.628  10.276
 6573SOL    HW131058   2.900   2.649  10.372
 6573SOL    HW231059   2.855   2.533  10.267
 6574SOL     OW31060   2.842   3.435  11.010
 6574SOL    HW131061   2.822   3.479  10.922
 6574SOL    HW231062   2.881   3.344  10.994
 6575SOL     OW31063   3.165   2.700   9.352
 6575SOL    HW131064   3.199   2.607   9.367
 6575SOL    HW231065   3.183   2.727   9.257
 6576SOL     OW31066   2.930   3.195  10.159
 6576SOL    HW131067   2.937   3.111  10.104
 6576SOL    HW231068   2.992   3.264  10.123
 6577SOL     OW31069   2.181   2.672  10.259
 6577SOL    HW131070   2.274   2.708  10.264
 6577SOL    HW231071   2.175   2.587  10.311
 6578SOL     OW31072   2.677   2.434   9.635
 6578SOL    HW131073   2.684   2.345   9.589
 6578SOL    HW231074   2.583   2.468   9.627
 6579SOL     OW31075   2.114   3.426  11.054
 6579SOL    HW131076   2.084   3.483  11.130
 6579SOL    HW231077   2.107   3.329  11.080
 6580SOL     OW31078   2.792   3.540  10.775
 6580SOL    HW131079   2.768   3.522  10.680
 6580SOL    HW231080   2.822   3.634  10.785
 6581SOL     OW31081   2.335   2.362   9.501
 6581SOL    HW131082   2.396   2.442   9.505
 6581SOL    HW231083   2.240   2.393   9.508
 6582SOL     OW31084   2.021   2.999  10.776
 6582SOL    HW131085   2.043   2.938  10.852
 6582SOL    HW231086   2.031   2.950  10.690
 6583SOL     OW31087   3.209   2.921  10.544
 6583SOL    HW131088   3.233   2.858  10.470
 6583SOL    HW231089   3.119   2.961  10.526
 6584SOL     OW31090   3.164   2.717   9.619
 6584SOL    HW131091   3.078   2.686   9.661
 6584SOL    HW231092   3.160   2.703   9.520
 6585SOL     OW31093   3.114   3.593  10.438
 6585SOL    HW131094   3.198   3.598  10.384
 6585SOL    HW231095   3.091   3.497  10.456
 6586SOL     OW31096   2.550   3.524  11.026
 6586SOL    HW131097   2.494   3.605  11.035
 6586SOL    HW231098   2.602   3.528  10.940
 6587SOL     OW31099   3.588   1.997   9.833
 6587SOL    HW131100   3.661   1.980   9.766
 6587SOL    HW231101   3.557   1.910   9.871
 6588SOL     OW31102   3.250   3.435   9.787
 6588SOL    HW131103   3.317   3.447   9.713
 6588SOL    HW231104   3.210   3.524   9.810
 6589SOL     OW31105   1.992   3.656  11.161
 6589SOL    HW131106   1.951   3.582  11.214
 6589SOL    HW231107   2.056   3.707  11.219
 6590SOL     OW31108   3.142   2.789   9.982
 6590SOL    HW131109   3.202   2.708   9.984
 6590SOL    HW231110   3.182   2.858   9.922
 6591SOL     OW31111   2.692   3.135  10.732
 6591SOL    HW131112   2.687   3.168  10.827
 6591SOL    HW231113   2.606   3.154  10.686
 6592SOL     OW31114   2.534   3.478   9.464
 6592SOL    HW131115   2.543   3.488   9.365
 6592SOL    HW231116   2.494   3.389   9.485
 6593SOL     OW31117   3.703   2.037  10.273
 6593SOL    HW131118   3.742   1.952  10.237
 6593SOL    HW231119   3.605   2.039  10.254
 6594SOL     OW31120   2.125   2.188  10.030
 6594SOL    HW131121   2.046   2.239   9.996
 6594SOL    HW231122   2.116   2.173  10.128
 6595SOL     OW31123   3.056   3.474   9.341
 6595SOL    HW131124   3.062   3.381   9.378
 6595SOL    HW231125   2.997   3.474   9.261
 6596SOL     OW31126   2.778   2.772   9.601
 6596SOL    HW131127   2.841   2.810   9.533
 6596SOL    HW231128   2.818   2.689   9.640
 6597SOL     OW31129   3.366   3.469   9.354
 6597SOL    HW131130   3.274   3.506   9.361
 6597SOL    HW231131   3.404   3.489   9.264
 6598SOL     OW31132   2.234   3.150  10.800
 6598SOL    HW131133   2.221   3.243  10.766
 6598SOL    HW231134   2.150   3.098  10.787
 6599SOL     OW31135   2.901   2.960  10.006
 6599SOL    HW131136   2.831   2.913  10.060
 6599SOL    HW231137   2.960   2.892   9.963
 6600SOL     OW31138   2.876   2.098  10.281
 6600SOL    HW131139   2.868   2.062  10.188
 6600SOL    HW231140   2.874   2.022  10.346
 6601SOL     OW31141   2.452   3.349   9.801
 6601SOL    HW131142   2.494   3.291   9.731
 6601SOL    HW231143   2.408   3.428   9.757
 6602SOL     OW31144   3.571   2.247  10.691
 6602SOL    HW131145   3.644   2.316  10.695
 6602SOL    HW231146   3.599   2.172  10.632
 6603SOL     OW31147   1.937   2.207   9.343
 6603SOL    HW131148   1.845   2.179   9.314
 6603SOL    HW231149   1.968   2.284   9.287
 6604SOL     OW31150   3.302   2.718  10.708
 6604SOL    HW131151   3.245   2.770  10.645
 6604SOL    HW231152   3.398   2.730  10.684
 6605SOL     OW31153   3.045   3.197   9.429
 6605SOL    HW131154   2.946   3.186   9.431
 6605SOL    HW231155   3.079   3.212   9.522
 6606SOL     OW31156   3.355   3.629  10.269
 6606SOL    HW131157   3.388   3.693  10.200
 6606SOL    HW231158   3.421   3.623  10.344
 6607SOL     OW31159   2.578   2.427  11.018
 6607SOL    HW131160   2.597   2.492  11.092
 6607SOL    HW231161   2.638   2.347  11.027
 6608SOL     OW31162   3.312   3.082  10.943
 6608SOL    HW131163   3.303   3.072  11.042
 6608SOL    HW231164   3.408   3.075  10.917
 6609SOL     OW31165   3.087   2.187   9.759
 6609SOL    HW131166   3.152   2.113   9.748
 6609SOL    HW231167   3.107   2.237   9.843
 6610SOL     OW31168   2.456   2.607   9.962
 6610SOL    HW131169   2.506   2.692   9.943
 6610SOL    HW231170   2.368   2.609   9.914
 6611SOL     OW31171   3.639   2.204  10.952
 6611SOL    HW131172   3.622   2.235  10.858
 6611SOL    HW231173   3.555   2.167  10.990
 6612SOL     OW31174   2.721   3.236   9.326
 6612SOL    HW131175   2.675   3.251   9.414
 6612SOL    HW231176   2.765   3.321   9.296
 6613SOL     OW31177   2.523   3.652  10.263
 6613SOL    HW131178   2.477   3.740  10.250
 6613SOL    HW231179   2.622   3.664  10.256
 6614SOL     OW31180   2.721   2.818  10.171
 6614SOL    HW131181   2.775   2.749  10.219
 6614SOL    HW231182   2.689   2.887  10.237
 6615SOL     OW31183   2.945   2.846   9.397
 6615SOL    HW131184   2.922   2.899   9.315
 6615SOL    HW231185   3.026   2.790   9.378
 6616SOL     OW31186   2.534   3.253  10.934
 6616SOL    HW131187   2.456   3.203  10.972
 6616SOL    HW231188   2.531   3.348  10.965
 6617SOL     OW31189   3.686   2.054  10.537
 6617SOL    HW131190   3.682   1.964  10.581
 6617SOL    HW231191   3.689   2.043  10.438
 6618SOL     OW31192   2.290   2.286   9.830
 6618SOL    HW131193   2.320   2.214   9.768
 6618SOL    HW231194   2.251   2.246   9.913
 6619SOL     OW31195   2.674   3.448   9.997
 6619SOL    HW131196   2.706   3.458   9.903
 6619SOL    HW231197   2.595   3.386   9.999
 6620SOL     OW31198   2.632   3.192   9.611
 6620SOL    HW131199   2.586   3.105   9.628
 6620SOL    HW231200   2.723   3.189   9.652
 6621SOL     OW31201   2.480   3.429  10.594
 6621SOL    HW131202   2.475   3.511  10.651
 6621SOL    HW231203   2.569   3.426  10.549
 6622SOL     OW31204   3.214   1.914   9.478
 6622SOL    HW131205   3.249   1.873   9.394
 6622SOL    HW231206   3.124   1.876   9.498
 6623SOL     OW31207   3.162   2.315  10.001
 6623SOL    HW131208   3.103   2.395  10.005
 6623SOL    HW231209   3.177   2.280  10.094
 6624SOL     OW31210   3.455   2.083  10.192
 6624SOL    HW131211   3.371   2.082  10.246
 6624SOL    HW231212   3.457   2.166  10.136
 6625SOL     OW31213   1.901   2.939   9.610
 6625SOL    HW131214   2.000   2.928   9.601
 6625SOL    HW231215   1.861   2.853   9.642
 6626SOL     OW31216   2.737   3.508   9.647
 6626SOL    HW131217   2.660   3.473   9.593
 6626SOL    HW231218   2.705   3.579   9.709
 6627SOL     OW31219   2.997   2.565  11.889
 6627SOL    HW131220   3.054   2.643  11.864
 6627SOL    HW231221   2.937   2.591  11.965
 6628SOL     OW31222   2.548   3.023  12.975
 6628SOL    HW131223   2.608   3.102  12.989
 6628SOL    HW231224   2.462   3.054  12.934
 6629SOL     OW31225   2.300   2.254  12.671
 6629SOL    HW131226   2.382   2.198  12.680
 6629SOL    HW231227   2.219   2.196  12.675
 6630SOL     OW31228   2.093   3.575  11.655
 6630SOL    HW131229   2.127   3.652  11.709
 6630SOL    HW231230   2.137   3.575  11.565
 6631SOL     OW31231   2.092   3.296  11.710
 6631SOL    HW131232   2.066   3.392  11.710
 6631SOL    HW231233   2.021   3.242  11.755
 6632SOL     OW31234   1.984   2.505  11.735
 6632SOL    HW131235   1.939   2.417  11.752
 6632SOL    HW231236   1.983   2.559  11.819
 6633SOL     OW31237   1.889   3.458  11.289
 6633SOL    HW131238   1.870   3.362  11.310
 6633SOL    HW231239   1.856   3.516  11.364
 6634SOL     OW31240   3.551   2.784  11.784
 6634SOL    HW131241   3.646   2.755  11.792
 6634SOL    HW231242   3.543   2.849  11.709
 6635SOL     OW31243   3.503   2.970  11.604
 6635SOL    HW131244   3.589   2.972  11.552
 6635SOL    HW231245   3.517   3.017  11.692
 6636SOL     OW31246   2.475   3.227  11.898
 6636SOL    HW131247   2.426   3.140  11.907
 6636SOL    HW231248   2.452   3.270  11.811
 6637SOL     OW31249   3.155   3.090  12.595
 6637SOL    HW131250   3.192   3.017  12.537
 6637SOL    HW231251   3.207   3.095  12.680
 6638SOL     OW31252   3.387   2.861  11.362
 6638SOL    HW131253   3.324   2.785  11.375
 6638SOL    HW231254   3.435   2.879  11.448
 6639SOL     OW31255   3.049   3.654  12.788
 6639SOL    HW131256   3.073   3.714  12.712
 6639SOL    HW231257   3.056   3.559  12.758
 6640SOL     OW31258   3.328   3.279  12.125
 6640SOL    HW131259   3.269   3.285  12.205
 6640SOL    HW231260   3.313   3.191  12.079
 6641SOL     OW31261   3.438   3.524  11.479
 6641SOL    HW131262   3.527   3.570  11.482
 6641SOL    HW231263   3.417   3.500  11.384
 6642SOL     OW31264   2.669   2.467  12.637
 6642SOL    HW131265   2.622   2.464  12.726
 6642SOL    HW231266   2.618   2.412  12.571
 6643SOL     OW31267   1.938   2.673  11.961
 6643SOL    HW131268   2.037   2.661  11.970
 6643SOL    HW231269   1.914   2.768  11.982
 6644SOL     OW31270   1.992   3.683  12.743
 6644SOL    HW131271   1.982   3.668  12.842
 6644SOL    HW231272   1.906   3.719  12.707
 6645SOL     OW31273   3.224   3.006  11.717
 6645SOL    HW131274   3.307   2.977  11.669
 6645SOL    HW231275   3.175   3.073  11.661
 6646SOL     OW31276   2.213   3.663  12.025
 6646SOL    HW131277   2.263   3.577  12.031
 6646SOL    HW231278   2.278   3.740  12.022
 6647SOL     OW31279   3.657   2.928  12.045
 6647SOL    HW131280   3.595   2.913  11.969
 6647SOL    HW231281   3.605   2.939  12.130
 6648SOL     OW31282   3.320   2.597  11.900
 6648SOL    HW131283   3.315   2.532  11.975
 6648SOL    HW231284   3.400   2.656  11.913
 6649SOL     OW31285   2.323   3.128  12.899
 6649SOL    HW131286   2.273   3.129  12.813
 6649SOL    HW231287   2.260   3.110  12.975
 6650SOL     OW31288   2.064   2.147  12.670
 6650SOL    HW131289   1.984   2.207  12.657
 6650SOL    HW231290   2.054   2.098  12.756
 6651SOL     OW31291   3.494   3.239  11.253
 6651SOL    HW131292   3.462   3.333  11.243
 6651SOL    HW231293   3.418   3.176  11.241
 6652SOL     OW31294   2.326   3.605  11.495
 6652SOL    HW131295   2.359   3.644  11.581
 6652SOL    HW231296   2.402   3.598  11.430
 6653SOL     OW31297   2.643   2.126  12.921
 6653SOL    HW131298   2.710   2.065  12.964
 6653SOL    HW231299   2.570   2.145  12.986
 6654SOL     OW31300   2.750   3.376  12.367
 6654SOL    HW131301   2.727   3.351  12.273
 6654SOL    HW231302   2.811   3.307  12.406
 6655SOL     OW31303   2.784   2.365  12.071
 6655SOL    HW131304   2.759   2.356  11.975
 6655SOL    HW231305   2.832   2.283  12.102
 6656SOL     OW31306   3.296   3.050  11.213
 6656SOL    HW131307   3.328   2.974  11.270
 6656SOL    HW231308   3.204   3.077  11.243
 6657SOL     OW31309   3.089   3.432  11.965
 6657SOL    HW131310   3.110   3.506  11.900
 6657SOL    HW231311   3.157   3.432  12.038
 6658SOL     OW31312   2.321   3.014  11.913
 6658SOL    HW131313   2.250   2.987  11.978
 6658SOL    HW231314   2.295   2.986  11.820
 6659SOL     OW31315   2.894   2.411  11.188
 6659SOL    HW131316   2.853   2.493  11.149
 6659SOL    HW231317   2.958   2.437  11.261
 6660SOL     OW31318   3.291   3.035  12.039
 6660SOL    HW131319   3.236   2.951  12.032
 6660SOL    HW231320   3.317   3.064  11.947
 6661SOL     OW31321   2.350   3.247  11.346
 6661SOL    HW131322   2.263   3.232  11.393
 6661SOL    HW231323   2.333   3.273  11.251
 6662SOL     OW31324   3.500   2.961  12.251
 6662SOL    HW131325   3.505   3.042  12.310
 6662SOL    HW231326   3.414   2.963  12.200
 6663SOL     OW31327   2.777   1.951  12.574
 6663SOL    HW131328   2.802   1.931  12.479
 6663SOL    HW231329   2.849   2.007  12.616
 6664SOL     OW31330   2.842   2.978  12.891
 6664SOL    HW131331   2.743   2.984  12.901
 6664SOL    HW231332   2.865   2.898  12.835
 6665SOL     OW31333   2.272   2.675  12.423
 6665SOL    HW131334   2.358   2.687  12.473
 6665SOL    HW231335   2.230   2.588  12.450
 6666SOL     OW31336   3.136   2.248  12.434
 6666SOL    HW131337   3.157   2.322  12.498
 6666SOL    HW231338   3.047   2.265  12.391
 6667SOL     OW31339   3.444   2.501  11.644
 6667SOL    HW131340   3.413   2.562  11.717
 6667SOL    HW231341   3.494   2.553  11.575
 6668SOL     OW31342   2.875   1.967  12.942
 6668SOL    HW131343   2.881   2.052  12.890
 6668SOL    HW231344   2.907   1.891  12.885
 6669SOL     OW31345   2.366   1.912  12.912
 6669SOL    HW131346   2.324   1.855  12.842
 6669SOL    HW231347   2.300   1.981  12.944
 6670SOL     OW31348   1.899   3.172  12.454
 6670SOL    HW131349   1.952   3.123  12.522
 6670SOL    HW231350   1.921   3.270  12.459
 6671SOL     OW31351   2.169   1.925  11.790
 6671SOL    HW131352   2.158   2.019  11.823
 6671SOL    HW231353   2.164   1.862  11.867
 6672SOL     OW31354   2.885   2.628  12.138
 6672SOL    HW131355   2.900   2.649  12.234
 6672SOL    HW231356   2.855   2.533  12.129
 6673SOL     OW31357   3.721   3.380  12.777
 6673SOL    HW131358   3.735   3.407  12.682
 6673SOL    HW231359   3.804   3.402  12.830
 6674SOL     OW31360   3.402   2.136  11.297
 6674SOL    HW131361   3.341   2.061  11.320
 6674SOL    HW231362   3.424   2.188  11.380
 6675SOL     OW31363   3.022   2.069  12.649
 6675SOL    HW131364   3.022   2.133  12.726
 6675SOL    HW231365   3.050   2.117  12.566
 6676SOL     OW31366   1.950   3.663  12.099
 6676SOL    HW131367   1.908   3.577  12.072
 6676SOL    HW231368   2.044   3.666  12.065
 6677SOL     OW31369   2.366   3.430  12.082
 6677SOL    HW131370   2.432   3.504  12.091
 6677SOL    HW231371   2.410   3.351  12.040
 6678SOL     OW31372   2.864   2.658  12.410
 6678SOL    HW131373   2.905   2.626  12.496
 6678SOL    HW231374   2.768   2.631  12.407
 6679SOL     OW31375   3.231   2.812  12.832
 6679SOL    HW131376   3.270   2.901  12.852
 6679SOL    HW231377   3.241   2.792  12.735
 6680SOL     OW31378   3.519   2.466  12.378
 6680SOL    HW131379   3.481   2.397  12.440
 6680SOL    HW231380   3.601   2.430  12.334
 6681SOL     OW31381   2.792   3.540  12.637
 6681SOL    HW131382   2.768   3.522  12.542
 6681SOL    HW231383   2.822   3.634  12.647
 6682SOL     OW31384   3.114   3.593  12.300
 6682SOL    HW131385   3.198   3.598  12.246
 6682SOL    HW231386   3.091   3.497  12.318
 6683SOL     OW31387   2.550   3.524  12.888
 6683SOL    HW131388   2.494   3.605  12.897
 6683SOL    HW231389   2.602   3.528  12.802
 6684SOL     OW31390   1.992   3.656  13.023
 6684SOL    HW131391   1.951   3.582  13.076
 6684SOL    HW231392   2.056   3.707  13.081
 6685SOL     OW31393   3.142   2.789  11.844
 6685SOL    HW131394   3.202   2.708  11.846
 6685SOL    HW231395   3.182   2.858  11.784
 6686SOL     OW31396   2.534   3.478  11.326
 6686SOL    HW131397   2.543   3.488  11.227
 6686SOL    HW231398   2.494   3.389  11.347
 6687SOL     OW31399   3.512   3.582  12.566
 6687SOL    HW131400   3.565   3.592  12.482
 6687SOL    HW231401   3.485   3.672  12.600
 6688SOL     OW31402   3.056   3.474  11.203
 6688SOL    HW131403   3.062   3.381  11.240
 6688SOL    HW231404   2.997   3.474  11.123
 6689SOL     OW31405   3.366   3.469  11.216
 6689SOL    HW131406   3.274   3.506  11.223
 6689SOL    HW231407   3.404   3.489  11.126
 6690SOL     OW31408   2.234   3.150  12.662
 6690SOL    HW131409   2.221   3.243  12.628
 6690SOL    HW231410   2.150   3.098  12.649
 6691SOL     OW31411   2.452   3.349  11.663
 6691SOL    HW131412   2.494   3.291  11.593
 6691SOL    HW231413   2.408   3.428  11.619
 6692SOL     OW31414   2.534   2.065  12.661
 6692SOL    HW131415   2.624   2.049  12.621
 6692SOL    HW231416   2.542   2.070  12.760
 6693SOL     OW31417   1.937   2.207  11.205
 6693SOL    HW131418   1.845   2.179  11.176
 6693SOL    HW231419   1.968   2.284  11.149
 6694SOL     OW31420   3.045   3.197  11.291
 6694SOL    HW131421   2.946   3.186  11.293
 6694SOL    HW231422   3.079   3.212  11.384
 6695SOL     OW31423   2.475   2.704  12.603
 6695SOL    HW131424   2.531   2.785  12.586
 6695SOL    HW231425   2.534   2.624  12.606
 6696SOL     OW31426   3.312   3.082  12.805
 6696SOL    HW131427   3.303   3.072  12.904
 6696SOL    HW231428   3.408   3.075  12.779
 6697SOL     OW31429   2.721   3.236  11.188
 6697SOL    HW131430   2.675   3.251  11.276
 6697SOL    HW231431   2.765   3.321  11.158
 6698SOL     OW31432   1.941   3.102  11.825
 6698SOL    HW131433   1.940   3.055  11.913
 6698SOL    HW231434   2.023   3.074  11.774
 6699SOL     OW31435   2.534   3.253  12.796
 6699SOL    HW131436   2.456   3.203  12.834
 6699SOL    HW231437   2.531   3.348  12.827
 6700SOL     OW31438   2.179   2.409  12.452
 6700SOL    HW131439   2.217   2.350  12.524
 6700SOL    HW231440   2.219   2.383  12.364
 6701SOL     OW31441   2.674   3.448  11.859
 6701SOL    HW131442   2.706   3.458  11.765
 6701SOL    HW231443   2.595   3.386  11.861
 6702SOL     OW31444   2.997   2.565  13.751
 6702SOL    HW131445   3.054   2.643  13.726
 6702SOL    HW231446   2.937   2.591  13.827
 6703SOL     OW31447   3.617   2.469  13.265
 6703SOL    HW131448   3.605   2.456  13.166
 6703SOL    HW231449   3.587   2.388  13.314
 6704SOL     OW31450   2.712   2.660  14.857
 6704SOL    HW131451   2.708   2.736  14.922
 6704SOL    HW231452   2.734   2.696  14.766
 6705SOL     OW31453   3.465   2.309  13.771
 6705SOL    HW131454   3.391   2.355  13.721
 6705SOL    HW231455   3.516   2.377  13.824
 6706SOL     OW31456   2.102   2.953  13.920
 6706SOL    HW131457   2.116   2.869  13.972
 6706SOL    HW231458   2.047   3.017  13.975
 6707SOL     OW31459   1.889   3.458  13.151
 6707SOL    HW131460   1.870   3.362  13.172
 6707SOL    HW231461   1.856   3.516  13.226
 6708SOL     OW31462   3.551   2.784  13.646
 6708SOL    HW131463   3.646   2.755  13.654
 6708SOL    HW231464   3.543   2.849  13.571
 6709SOL     OW31465   3.503   2.970  13.466
 6709SOL    HW131466   3.589   2.972  13.414
 6709SOL    HW231467   3.517   3.017  13.554
 6710SOL     OW31468   3.155   3.090  14.457
 6710SOL    HW131469   3.192   3.017  14.399
 6710SOL    HW231470   3.207   3.095  14.542
 6711SOL     OW31471   3.049   3.654  14.650
 6711SOL    HW131472   3.073   3.714  14.574
 6711SOL    HW231473   3.056   3.559  14.620
 6712SOL     OW31474   3.328   3.279  13.987
 6712SOL    HW131475   3.269   3.285  14.067
 6712SOL    HW231476   3.313   3.191  13.941
 6713SOL     OW31477   2.903   2.563  13.463
 6713SOL    HW131478   2.929   2.559  13.559
 6713SOL    HW231479   2.818   2.512  13.449
 6714SOL     OW31480   1.938   2.673  13.823
 6714SOL    HW131481   2.037   2.661  13.832
 6714SOL    HW231482   1.914   2.768  13.844
 6715SOL     OW31483   1.992   3.683  14.605
 6715SOL    HW131484   1.982   3.668  14.704
 6715SOL    HW231485   1.906   3.719  14.569
 6716SOL     OW31486   3.224   3.006  13.579
 6716SOL    HW131487   3.307   2.977  13.531
 6716SOL    HW231488   3.175   3.073  13.523
 6717SOL     OW31489   3.657   2.928  13.907
 6717SOL    HW131490   3.595   2.913  13.831
 6717SOL    HW231491   3.605   2.939  13.992
 6718SOL     OW31492   3.320   2.597  13.762
 6718SOL    HW131493   3.315   2.532  13.837
 6718SOL    HW231494   3.400   2.656  13.775
 6719SOL     OW31495   3.262   1.969  13.460
 6719SOL    HW131496   3.238   1.932  13.370
 6719SOL    HW231497   3.361   1.985  13.464
 6720SOL     OW31498   3.409   2.084  14.763
 6720SOL    HW131499   3.404   2.121  14.855
 6720SOL    HW231500   3.337   2.015  14.751
 6721SOL     OW31501   2.665   3.264  13.958
 6721SOL    HW131502   2.755   3.278  13.916
 6721SOL    HW231503   2.594   3.266  13.887
 6722SOL     OW31504   2.784   2.365  13.933
 6722SOL    HW131505   2.759   2.356  13.837
 6722SOL    HW231506   2.832   2.283  13.964
 6723SOL     OW31507   2.159   1.897  13.205
 6723SOL    HW131508   2.208   1.981  13.184
 6723SOL    HW231509   2.221   1.832  13.250
 6724SOL     OW31510   2.938   2.545  14.498
 6724SOL    HW131511   2.858   2.484  14.501
 6724SOL    HW231512   3.019   2.492  14.474
 6725SOL     OW31513   2.728   2.316  13.676
 6725SOL    HW131514   2.696   2.388  13.614
 6725SOL    HW231515   2.752   2.235  13.623
 6726SOL     OW31516   3.291   3.035  13.901
 6726SOL    HW131517   3.236   2.951  13.894
 6726SOL    HW231518   3.317   3.064  13.809
 6727SOL     OW31519   3.328   2.452  14.026
 6727SOL    HW131520   3.298   2.357  14.033
 6727SOL    HW231521   3.401   2.468  14.092
 6728SOL     OW31522   3.526   3.142  13.691
 6728SOL    HW131523   3.625   3.150  13.705
 6728SOL    HW231524   3.481   3.226  13.722
 6729SOL     OW31525   3.252   2.437  13.112
 6729SOL    HW131526   3.198   2.416  13.193
 6729SOL    HW231527   3.343   2.396  13.121
 6730SOL     OW31528   2.926   3.209  14.374
 6730SOL    HW131529   2.846   3.186  14.429
 6730SOL    HW231530   3.009   3.183  14.423
 6731SOL     OW31531   3.500   2.961  14.113
 6731SOL    HW131532   3.505   3.042  14.172
 6731SOL    HW231533   3.414   2.963  14.062
 6732SOL     OW31534   3.114   3.210  13.422
 6732SOL    HW131535   3.164   3.287  13.462
 6732SOL    HW231536   3.019   3.212  13.454
 6733SOL     OW31537   3.444   2.501  13.506
 6733SOL    HW131538   3.413   2.562  13.579
 6733SOL    HW231539   3.494   2.553  13.437
 6734SOL     OW31540   3.071   2.387  13.309
 6734SOL    HW131541   3.084   2.303  13.363
 6734SOL    HW231542   3.042   2.461  13.369
 6735SOL     OW31543   2.169   2.075  14.265
 6735SOL    HW131544   2.146   2.112  14.355
 6735SOL    HW231545   2.139   1.980  14.259
 6736SOL     OW31546   1.899   3.172  14.316
 6736SOL    HW131547   1.952   3.123  14.384
 6736SOL    HW231548   1.921   3.270  14.321
 6737SOL     OW31549   3.484   2.229  13.408
 6737SOL    HW131550   3.486   2.153  13.472
 6737SOL    HW231551   3.436   2.306  13.448
 6738SOL     OW31552   2.842   3.435  14.734
 6738SOL    HW131553   2.822   3.479  14.646
 6738SOL    HW231554   2.881   3.344  14.718
 6739SOL     OW31555   3.721   3.380  14.639
 6739SOL    HW131556   3.735   3.407  14.544
 6739SOL    HW231557   3.804   3.402  14.692
 6740SOL     OW31558   3.402   2.136  13.159
 6740SOL    HW131559   3.341   2.061  13.182
 6740SOL    HW231560   3.424   2.188  13.242
 6741SOL     OW31561   3.000   2.242  14.712
 6741SOL    HW131562   2.955   2.305  14.776
 6741SOL    HW231563   3.093   2.273  14.695
 6742SOL     OW31564   3.022   2.069  14.511
 6742SOL    HW131565   3.022   2.133  14.588
 6742SOL    HW231566   3.050   2.117  14.428
 6743SOL     OW31567   1.870   3.188  13.234
 6743SOL    HW131568   1.777   3.209  13.203
 6743SOL    HW231569   1.880   3.089  13.247
 6744SOL     OW31570   2.864   2.658  14.272
 6744SOL    HW131571   2.905   2.626  14.358
 6744SOL    HW231572   2.768   2.631  14.269
 6745SOL     OW31573   2.677   2.434  13.359
 6745SOL    HW131574   2.684   2.345  13.313
 6745SOL    HW231575   2.583   2.468  13.351
 6746SOL     OW31576   2.792   3.540  14.499
 6746SOL    HW131577   2.768   3.522  14.404
 6746SOL    HW231578   2.822   3.634  14.509
 6747SOL     OW31579   3.621   3.609  14.188
 6747SOL    HW131580   3.682   3.639  14.115
 6747SOL    HW231581   3.583   3.520  14.166
 6748SOL     OW31582   1.945   3.120  14.056
 6748SOL    HW131583   1.940   3.119  14.156
 6748SOL    HW231584   1.862   3.079  14.018
 6749SOL     OW31585   3.250   3.435  13.511
 6749SOL    HW131586   3.317   3.447  13.437
 6749SOL    HW231587   3.210   3.524  13.534
 6750SOL     OW31588   1.992   3.656  14.885
 6750SOL    HW131589   1.951   3.582  14.938
 6750SOL    HW231590   2.056   3.707  14.943
 6751SOL     OW31591   3.142   2.789  13.706
 6751SOL    HW131592   3.202   2.708  13.708
 6751SOL    HW231593   3.182   2.858  13.646
 6752SOL     OW31594   2.684   2.864  14.406
 6752SOL    HW131595   2.724   2.863  14.314
 6752SOL    HW231596   2.694   2.956  14.446
 6753SOL     OW31597   2.234   3.150  14.524
 6753SOL    HW131598   2.221   3.243  14.490
 6753SOL    HW231599   2.150   3.098  14.511
 6754SOL     OW31600   3.476   3.154  14.323
 6754SOL    HW131601   3.536   3.157  14.403
 6754SOL    HW231602   3.401   3.218  14.336
 6755SOL     OW31603   2.876   2.098  14.005
 6755SOL    HW131604   2.868   2.062  13.912
 6755SOL    HW231605   2.874   2.022  14.070
 6756SOL     OW31606   1.967   2.875  14.760
 6756SOL    HW131607   1.890   2.842  14.814
 6756SOL    HW231608   2.052   2.845  14.802
 6757SOL     OW31609   3.045   3.197  13.153
 6757SOL    HW131610   2.946   3.186  13.155
 6757SOL    HW231611   3.079   3.212  13.246
 6758SOL     OW31612   3.355   3.629  13.993
 6758SOL    HW131613   3.388   3.693  13.924
 6758SOL    HW231614   3.421   3.623  14.068
 6759SOL     OW31615   2.252   3.603  14.594
 6759SOL    HW131616   2.161   3.644  14.592
 6759SOL    HW231617   2.245   3.509  14.626
 6760SOL     OW31618   3.087   2.187  13.483
 6760SOL    HW131619   3.152   2.113  13.472
 6760SOL    HW231620   3.107   2.237  13.567
 6761SOL     OW31621   2.456   2.607  13.686
 6761SOL    HW131622   2.506   2.692  13.667
 6761SOL    HW231623   2.368   2.609  13.638
 6762SOL     OW31624   3.723   3.431  13.885
 6762SOL    HW131625   3.652   3.419  13.815
 6762SOL    HW231626   3.724   3.352  13.945
 6763SOL     OW31627   3.567   3.349  14.138
 6763SOL    HW131628   3.474   3.324  14.111
 6763SOL    HW231629   3.593   3.299  14.220
 6764SOL     OW31630   2.179   2.409  14.314
 6764SOL    HW131631   2.217   2.350  14.386
 6764SOL    HW231632   2.219   2.383  14.226
 6765SOL     OW31633   2.674   3.448  13.721
 6765SOL    HW131634   2.706   3.458  13.627
 6765SOL    HW231635   2.595   3.386  13.723
 6766SOL     OW31636   2.632   3.192  13.335
 6766SOL    HW131637   2.586   3.105  13.352
 6766SOL    HW231638   2.723   3.189  13.376
 6767SOL     OW31639   3.214   1.914  13.202
 6767SOL    HW131640   3.249   1.873  13.118
 6767SOL    HW231641   3.124   1.876  13.222
 6768SOL     OW31642   3.162   2.315  13.725
 6768SOL    HW131643   3.103   2.395  13.729
 6768SOL    HW231644   3.177   2.280  13.818
 6769SOL     OW31645   2.737   3.508  13.371
 6769SOL    HW131646   2.660   3.473  13.317
 6769SOL    HW231647   2.705   3.579  13.433
 6770SOL     OW31648   2.092   2.490  15.009
 6770SOL    HW131649   1.999   2.488  15.046
 6770SOL    HW231650   2.093   2.451  14.917
 6771SOL     OW31651   3.417   3.373  15.599
 6771SOL    HW131652   3.360   3.357  15.680
 6771SOL    HW231653   3.358   3.383  15.519
 6772SOL     OW31654   2.712   2.660  16.720
 6772SOL    HW131655   2.708   2.736  16.785
 6772SOL    HW231656   2.734   2.696  16.629
 6773SOL     OW31657   3.465   2.309  15.633
 6773SOL    HW131658   3.391   2.355  15.583
 6773SOL    HW231659   3.516   2.377  15.686
 6774SOL     OW31660   1.984   2.505  15.459
 6774SOL    HW131661   1.939   2.417  15.476
 6774SOL    HW231662   1.983   2.559  15.543
 6775SOL     OW31663   3.704   3.629  15.255
 6775SOL    HW131664   3.758   3.600  15.335
 6775SOL    HW231665   3.734   3.719  15.226
 6776SOL     OW31666   3.551   2.784  15.508
 6776SOL    HW131667   3.646   2.755  15.516
 6776SOL    HW231668   3.543   2.849  15.433
 6777SOL     OW31669   3.503   2.970  15.328
 6777SOL    HW131670   3.589   2.972  15.276
 6777SOL    HW231671   3.517   3.017  15.416
 6778SOL     OW31672   2.059   2.838  16.161
 6778SOL    HW131673   2.148   2.793  16.147
 6778SOL    HW231674   1.986   2.773  16.142
 6779SOL     OW31675   3.387   2.861  15.086
 6779SOL    HW131676   3.324   2.785  15.099
 6779SOL    HW231677   3.435   2.879  15.172
 6780SOL     OW31678   3.049   3.654  16.513
 6780SOL    HW131679   3.073   3.714  16.437
 6780SOL    HW231680   3.056   3.559  16.483
 6781SOL     OW31681   3.529   3.576  15.468
 6781SOL    HW131682   3.488   3.553  15.380
 6781SOL    HW231683   3.511   3.502  15.533
 6782SOL     OW31684   3.438   3.524  15.203
 6782SOL    HW131685   3.527   3.570  15.206
 6782SOL    HW231686   3.417   3.500  15.108
 6783SOL     OW31687   2.669   2.467  16.362
 6783SOL    HW131688   2.622   2.464  16.451
 6783SOL    HW231689   2.618   2.412  16.296
 6784SOL     OW31690   2.835   2.752  16.469
 6784SOL    HW131691   2.881   2.668  16.440
 6784SOL    HW231692   2.779   2.786  16.394
 6785SOL     OW31693   2.853   2.272  16.139
 6785SOL    HW131694   2.776   2.306  16.193
 6785SOL    HW231695   2.819   2.221  16.060
 6786SOL     OW31696   2.903   2.563  15.325
 6786SOL    HW131697   2.929   2.559  15.421
 6786SOL    HW231698   2.818   2.512  15.311
 6787SOL     OW31699   1.938   2.673  15.685
 6787SOL    HW131700   2.037   2.661  15.694
 6787SOL    HW231701   1.914   2.768  15.706
 6788SOL     OW31702   3.581   2.447  16.728
 6788SOL    HW131703   3.555   2.536  16.692
 6788SOL    HW231704   3.579   2.379  16.655
 6789SOL     OW31705   3.224   3.006  15.441
 6789SOL    HW131706   3.307   2.977  15.393
 6789SOL    HW231707   3.175   3.073  15.385
 6790SOL     OW31708   2.412   2.058  15.781
 6790SOL    HW131709   2.407   2.053  15.881
 6790SOL    HW231710   2.414   2.154  15.752
 6791SOL     OW31711   2.870   3.318  15.373
 6791SOL    HW131712   2.824   3.390  15.321
 6791SOL    HW231713   2.866   3.338  15.471
 6792SOL     OW31714   3.657   2.928  15.769
 6792SOL    HW131715   3.595   2.913  15.693
 6792SOL    HW231716   3.605   2.939  15.854
 6793SOL     OW31717   3.320   2.597  15.624
 6793SOL    HW131718   3.315   2.532  15.699
 6793SOL    HW231719   3.400   2.656  15.637
 6794SOL     OW31720   3.262   1.969  15.322
 6794SOL    HW131721   3.238   1.932  15.232
 6794SOL    HW231722   3.361   1.985  15.326
 6795SOL     OW31723   2.802   3.560  15.800
 6795SOL    HW131724   2.882   3.503  15.821
 6795SOL    HW231725   2.753   3.520  15.723
 6796SOL     OW31726   2.665   3.264  15.820
 6796SOL    HW131727   2.755   3.278  15.778
 6796SOL    HW231728   2.594   3.266  15.749
 6797SOL     OW31729   2.784   2.365  15.795
 6797SOL    HW131730   2.759   2.356  15.699
 6797SOL    HW231731   2.832   2.283  15.826
 6798SOL     OW31732   2.401   1.926  15.408
 6798SOL    HW131733   2.320   1.927  15.466
 6798SOL    HW231734   2.404   2.009  15.353
 6799SOL     OW31735   3.296   3.050  14.937
 6799SOL    HW131736   3.328   2.974  14.994
 6799SOL    HW231737   3.204   3.077  14.967
 6800SOL     OW31738   2.938   2.545  16.361
 6800SOL    HW131739   2.858   2.484  16.364
 6800SOL    HW231740   3.019   2.492  16.337
 6801SOL     OW31741   2.894   2.411  14.912
 6801SOL    HW131742   2.853   2.493  14.873
 6801SOL    HW231743   2.958   2.437  14.985
 6802SOL     OW31744   2.423   2.084  16.044
 6802SOL    HW131745   2.461   2.000  16.081
 6802SOL    HW231746   2.335   2.103  16.088
 6803SOL     OW31747   3.291   3.035  15.763
 6803SOL    HW131748   3.236   2.951  15.756
 6803SOL    HW231749   3.317   3.064  15.671
 6804SOL     OW31750   3.719   2.695  15.273
 6804SOL    HW131751   3.761   2.631  15.337
 6804SOL    HW231752   3.681   2.644  15.195
 6805SOL     OW31753   3.526   3.142  15.553
 6805SOL    HW131754   3.625   3.150  15.567
 6805SOL    HW231755   3.481   3.226  15.584
 6806SOL     OW31756   3.252   2.437  14.974
 6806SOL    HW131757   3.198   2.416  15.055
 6806SOL    HW231758   3.343   2.396  14.983
 6807SOL     OW31759   3.500   2.961  15.976
 6807SOL    HW131760   3.505   3.042  16.035
 6807SOL    HW231761   3.414   2.963  15.925
 6808SOL     OW31762   2.842   2.978  16.616
 6808SOL    HW131763   2.743   2.984  16.626
 6808SOL    HW231764   2.865   2.898  16.560
 6809SOL     OW31765   3.136   2.248  16.159
 6809SOL    HW131766   3.157   2.322  16.223
 6809SOL    HW231767   3.047   2.265  16.116
 6810SOL     OW31768   1.926   3.426  16.228
 6810SOL    HW131769   1.880   3.508  16.194
 6810SOL    HW231770   2.024   3.445  16.237
 6811SOL     OW31771   2.428   2.399  15.761
 6811SOL    HW131772   2.440   2.465  15.687
 6811SOL    HW231773   2.474   2.433  15.844
 6812SOL     OW31774   3.114   3.210  15.284
 6812SOL    HW131775   3.164   3.287  15.324
 6812SOL    HW231776   3.019   3.212  15.316
 6813SOL     OW31777   2.216   3.372  16.226
 6813SOL    HW131778   2.195   3.328  16.139
 6813SOL    HW231779   2.313   3.398  16.229
 6814SOL     OW31780   3.449   2.641  16.567
 6814SOL    HW131781   3.357   2.679  16.562
 6814SOL    HW231782   3.509   2.688  16.502
 6815SOL     OW31783   2.594   2.496  15.961
 6815SOL    HW131784   2.653   2.470  15.885
 6815SOL    HW231785   2.566   2.592  15.950
 6816SOL     OW31786   3.590   2.797  16.751
 6816SOL    HW131787   3.544   2.790  16.662
 6816SOL    HW231788   3.528   2.841  16.817
 6817SOL     OW31789   2.885   2.628  15.863
 6817SOL    HW131790   2.900   2.649  15.959
 6817SOL    HW231791   2.855   2.533  15.854
 6818SOL     OW31792   3.165   2.700  14.938
 6818SOL    HW131793   3.199   2.607  14.953
 6818SOL    HW231794   3.183   2.727  14.843
 6819SOL     OW31795   3.000   2.242  16.575
 6819SOL    HW131796   2.955   2.305  16.639
 6819SOL    HW231797   3.093   2.273  16.558
 6820SOL     OW31798   3.022   2.069  16.374
 6820SOL    HW131799   3.022   2.133  16.451
 6820SOL    HW231800   3.050   2.117  16.291
 6821SOL     OW31801   1.870   3.188  15.096
 6821SOL    HW131802   1.777   3.209  15.065
 6821SOL    HW231803   1.880   3.089  15.109
 6822SOL     OW31804   2.864   2.658  16.135
 6822SOL    HW131805   2.905   2.626  16.221
 6822SOL    HW231806   2.768   2.631  16.132
 6823SOL     OW31807   3.231   2.812  16.557
 6823SOL    HW131808   3.270   2.901  16.577
 6823SOL    HW231809   3.241   2.792  16.460
 6824SOL     OW31810   2.533   2.326  16.166
 6824SOL    HW131811   2.499   2.237  16.136
 6824SOL    HW231812   2.559   2.380  16.086
 6825SOL     OW31813   3.164   2.717  15.205
 6825SOL    HW131814   3.078   2.686  15.247
 6825SOL    HW231815   3.160   2.703  15.106
 6826SOL     OW31816   3.114   3.593  16.025
 6826SOL    HW131817   3.198   3.598  15.971
 6826SOL    HW231818   3.091   3.497  16.043
 6827SOL     OW31819   3.142   2.789  15.568
 6827SOL    HW131820   3.202   2.708  15.570
 6827SOL    HW231821   3.182   2.858  15.508
 6828SOL     OW31822   3.703   2.037  15.860
 6828SOL    HW131823   3.742   1.952  15.824
 6828SOL    HW231824   3.605   2.039  15.841
 6829SOL     OW31825   3.056   3.474  14.927
 6829SOL    HW131826   3.062   3.381  14.964
 6829SOL    HW231827   2.997   3.474  14.847
 6830SOL     OW31828   2.778   2.772  15.187
 6830SOL    HW131829   2.841   2.810  15.119
 6830SOL    HW231830   2.818   2.689  15.226
 6831SOL     OW31831   3.366   3.469  14.940
 6831SOL    HW131832   3.274   3.506  14.947
 6831SOL    HW231833   3.404   3.489  14.850
 6832SOL     OW31834   2.234   3.150  16.387
 6832SOL    HW131835   2.221   3.243  16.353
 6832SOL    HW231836   2.150   3.098  16.374
 6833SOL     OW31837   3.476   3.154  16.186
 6833SOL    HW131838   3.536   3.157  16.266
 6833SOL    HW231839   3.401   3.218  16.199
 6834SOL     OW31840   2.876   2.098  15.868
 6834SOL    HW131841   2.868   2.062  15.775
 6834SOL    HW231842   2.874   2.022  15.933
 6835SOL     OW31843   3.045   3.197  15.015
 6835SOL    HW131844   2.946   3.186  15.017
 6835SOL    HW231845   3.079   3.212  15.108
 6836SOL     OW31846   2.578   2.427  16.605
 6836SOL    HW131847   2.597   2.492  16.679
 6836SOL    HW231848   2.638   2.347  16.614
 6837SOL     OW31849   2.252   3.603  16.457
 6837SOL    HW131850   2.161   3.644  16.455
 6837SOL    HW231851   2.245   3.509  16.489
 6838SOL     OW31852   2.721   3.236  14.912
 6838SOL    HW131853   2.675   3.251  15.000
 6838SOL    HW231854   2.765   3.321  14.882
 6839SOL     OW31855   2.523   3.652  15.850
 6839SOL    HW131856   2.477   3.740  15.837
 6839SOL    HW231857   2.622   3.664  15.843
 6840SOL     OW31858   2.945   2.846  14.983
 6840SOL    HW131859   2.922   2.899  14.901
 6840SOL    HW231860   3.026   2.790  14.964
 6841SOL     OW31861   3.723   3.431  15.747
 6841SOL    HW131862   3.652   3.419  15.677
 6841SOL    HW231863   3.724   3.352  15.807
 6842SOL     OW31864   3.686   2.054  16.124
 6842SOL    HW131865   3.682   1.964  16.168
 6842SOL    HW231866   3.689   2.043  16.025
 6843SOL     OW31867   2.674   3.448  15.583
 6843SOL    HW131868   2.706   3.458  15.489
 6843SOL    HW231869   2.595   3.386  15.585
 6844SOL     OW31870   2.632   3.192  15.197
 6844SOL    HW131871   2.586   3.105  15.214
 6844SOL    HW231872   2.723   3.189  15.238
 6845SOL     OW31873   3.214   1.914  15.064
 6845SOL    HW131874   3.249   1.873  14.980
 6845SOL    HW231875   3.124   1.876  15.084
 6846SOL     OW31876   3.162   2.315  15.587
 6846SOL    HW131877   3.103   2.395  15.591
 6846SOL    HW231878   3.177   2.280  15.680
 6847SOL     OW31879   2.431   3.137  17.924
 6847SOL    HW131880   2.338   3.130  17.887
 6847SOL    HW231881   2.442   3.226  17.968
 6848SOL     OW31882   3.617   2.469  16.990
 6848SOL    HW131883   3.605   2.456  16.891
 6848SOL    HW231884   3.587   2.388  17.039
 6849SOL     OW31885   2.630   3.006  17.782
 6849SOL    HW131886   2.552   3.023  17.842
 6849SOL    HW231887   2.664   3.093  17.746
 6850SOL     OW31888   2.547   2.874  17.424
 6850SOL    HW131889   2.616   2.858  17.494
 6850SOL    HW231890   2.474   2.931  17.462
 6851SOL     OW31891   2.102   2.953  17.645
 6851SOL    HW131892   2.116   2.869  17.697
 6851SOL    HW231893   2.047   3.017  17.700
 6852SOL     OW31894   2.475   3.227  17.485
 6852SOL    HW131895   2.426   3.140  17.494
 6852SOL    HW231896   2.452   3.270  17.398
 6853SOL     OW31897   2.671   1.866  17.261
 6853SOL    HW131898   2.711   1.957  17.252
 6853SOL    HW231899   2.571   1.874  17.267
 6854SOL     OW31900   2.059   2.838  18.023
 6854SOL    HW131901   2.148   2.793  18.009
 6854SOL    HW231902   1.986   2.773  18.004
 6855SOL     OW31903   3.387   2.861  16.949
 6855SOL    HW131904   3.324   2.785  16.962
 6855SOL    HW231905   3.435   2.879  17.035
 6856SOL     OW31906   2.727   2.210  16.954
 6856SOL    HW131907   2.786   2.273  16.905
 6856SOL    HW231908   2.746   2.116  16.925
 6857SOL     OW31909   2.412   2.058  17.644
 6857SOL    HW131910   2.407   2.053  17.744
 6857SOL    HW231911   2.414   2.154  17.615
 6858SOL     OW31912   2.973   3.638  16.996
 6858SOL    HW131913   2.913   3.576  17.046
 6858SOL    HW231914   3.004   3.594  16.911
 6859SOL     OW31915   2.326   3.605  17.082
 6859SOL    HW131916   2.359   3.644  17.168
 6859SOL    HW231917   2.402   3.598  17.017
 6860SOL     OW31918   3.262   1.969  17.185
 6860SOL    HW131919   3.238   1.932  17.095
 6860SOL    HW231920   3.361   1.985  17.189
 6861SOL     OW31921   2.111   3.647  18.000
 6861SOL    HW131922   2.168   3.582  18.050
 6861SOL    HW231923   2.095   3.614  17.907
 6862SOL     OW31924   2.802   3.560  17.663
 6862SOL    HW131925   2.882   3.503  17.684
 6862SOL    HW231926   2.753   3.520  17.586
 6863SOL     OW31927   2.476   1.984  16.876
 6863SOL    HW131928   2.574   1.962  16.883
 6863SOL    HW231929   2.445   1.967  16.783
 6864SOL     OW31930   2.665   3.264  17.683
 6864SOL    HW131931   2.755   3.278  17.641
 6864SOL    HW231932   2.594   3.266  17.612
 6865SOL     OW31933   2.401   1.926  17.271
 6865SOL    HW131934   2.320   1.927  17.329
 6865SOL    HW231935   2.404   2.009  17.216
 6866SOL     OW31936   3.296   3.050  16.800
 6866SOL    HW131937   3.328   2.974  16.857
 6866SOL    HW231938   3.204   3.077  16.830
 6867SOL     OW31939   3.089   3.432  17.552
 6867SOL    HW131940   3.110   3.506  17.487
 6867SOL    HW231941   3.157   3.432  17.625
 6868SOL     OW31942   2.321   3.014  17.500
 6868SOL    HW131943   2.250   2.987  17.565
 6868SOL    HW231944   2.295   2.986  17.407
 6869SOL     OW31945   3.133   3.659  17.350
 6869SOL    HW131946   3.177   3.723  17.286
 6869SOL    HW231947   3.083   3.711  17.420
 6870SOL     OW31948   2.894   2.411  16.775
 6870SOL    HW131949   2.853   2.493  16.736
 6870SOL    HW231950   2.958   2.437  16.848
 6871SOL     OW31951   3.291   3.035  17.626
 6871SOL    HW131952   3.236   2.951  17.619
 6871SOL    HW231953   3.317   3.064  17.534
 6872SOL     OW31954   3.719   2.695  17.136
 6872SOL    HW131955   3.761   2.631  17.200
 6872SOL    HW231956   3.681   2.644  17.058
 6873SOL     OW31957   2.350   3.247  16.933
 6873SOL    HW131958   2.263   3.232  16.980
 6873SOL    HW231959   2.333   3.273  16.838
 6874SOL     OW31960   2.973   3.057  17.859
 6874SOL    HW131961   2.933   3.101  17.940
 6874SOL    HW231962   2.932   3.094  17.776
 6875SOL     OW31963   3.500   2.961  17.838
 6875SOL    HW131964   3.505   3.042  17.897
 6875SOL    HW231965   3.414   2.963  17.787
 6876SOL     OW31966   2.567   2.912  17.127
 6876SOL    HW131967   2.553   2.919  17.226
 6876SOL    HW231968   2.651   2.861  17.109
 6877SOL     OW31969   2.272   2.675  18.010
 6877SOL    HW131970   2.358   2.687  18.060
 6877SOL    HW231971   2.230   2.588  18.037
 6878SOL     OW31972   2.229   2.962  17.260
 6878SOL    HW131973   2.222   3.045  17.204
 6878SOL    HW231974   2.233   2.882  17.200
 6879SOL     OW31975   2.428   2.399  17.624
 6879SOL    HW131976   2.440   2.465  17.550
 6879SOL    HW231977   2.474   2.433  17.707
 6880SOL     OW31978   3.134   3.307  17.901
 6880SOL    HW131979   3.181   3.320  17.988
 6880SOL    HW231980   3.068   3.233  17.910
 6881SOL     OW31981   2.435   2.732  17.788
 6881SOL    HW131982   2.479   2.821  17.779
 6881SOL    HW231983   2.372   2.732  17.865
 6882SOL     OW31984   2.594   2.496  17.823
 6882SOL    HW131985   2.653   2.470  17.747
 6882SOL    HW231986   2.566   2.592  17.812
 6883SOL     OW31987   3.484   2.229  17.133
 6883SOL    HW131988   3.486   2.153  17.197
 6883SOL    HW231989   3.436   2.306  17.173
 6884SOL     OW31990   2.885   2.628  17.725
 6884SOL    HW131991   2.900   2.649  17.821
 6884SOL    HW231992   2.855   2.533  17.716
 6885SOL     OW31993   3.402   2.136  16.884
 6885SOL    HW131994   3.341   2.061  16.907
 6885SOL    HW231995   3.424   2.188  16.967
 6886SOL     OW31996   2.930   3.195  17.608
 6886SOL    HW131997   2.937   3.111  17.553
 6886SOL    HW231998   2.992   3.264  17.572
 6887SOL     OW31999   2.181   2.672  17.708
 6887SOL    HW132000   2.274   2.708  17.713
 6887SOL    HW232001   2.175   2.587  17.760
 6888SOL     OW32002   2.201   2.371  17.765
 6888SOL    HW132003   2.149   2.288  17.748
 6888SOL    HW232004   2.278   2.376  17.701
 6889SOL     OW32005   1.950   3.663  17.686
 6889SOL    HW132006   1.908   3.577  17.659
 6889SOL    HW232007   2.044   3.666  17.652
 6890SOL     OW32008   2.864   2.658  17.997
 6890SOL    HW132009   2.905   2.626  18.083
 6890SOL    HW232010   2.768   2.631  17.994
 6891SOL     OW32011   1.902   2.406  17.873
 6891SOL    HW132012   1.987   2.373  17.832
 6891SOL    HW232013   1.915   2.421  17.971
 6892SOL     OW32014   2.677   2.434  17.084
 6892SOL    HW132015   2.684   2.345  17.038
 6892SOL    HW232016   2.583   2.468  17.076
 6893SOL     OW32017   3.250   3.435  17.236
 6893SOL    HW132018   3.317   3.447  17.162
 6893SOL    HW232019   3.210   3.524  17.259
 6894SOL     OW32020   2.534   3.478  16.913
 6894SOL    HW132021   2.543   3.488  16.814
 6894SOL    HW232022   2.494   3.389  16.934
 6895SOL     OW32023   2.684   2.864  18.131
 6895SOL    HW132024   2.724   2.863  18.039
 6895SOL    HW232025   2.694   2.956  18.171
 6896SOL     OW32026   2.778   2.772  17.050
 6896SOL    HW132027   2.841   2.810  16.982
 6896SOL    HW232028   2.818   2.689  17.089
 6897SOL     OW32029   2.452   3.349  17.250
 6897SOL    HW132030   2.494   3.291  17.180
 6897SOL    HW232031   2.408   3.428  17.206
 6898SOL     OW32032   3.536   2.745  18.013
 6898SOL    HW132033   3.509   2.656  17.976
 6898SOL    HW232034   3.537   2.813  17.940
 6899SOL     OW32035   2.523   3.652  17.712
 6899SOL    HW132036   2.477   3.740  17.699
 6899SOL    HW232037   2.622   3.664  17.705
 6900SOL     OW32038   2.721   2.818  17.620
 6900SOL    HW132039   2.775   2.749  17.668
 6900SOL    HW232040   2.689   2.887  17.686
 6901SOL     OW32041   2.945   2.846  16.846
 6901SOL    HW132042   2.922   2.899  16.764
 6901SOL    HW232043   3.026   2.790  16.827
 6902SOL     OW32044   1.941   3.102  17.412
 6902SOL    HW132045   1.940   3.055  17.500
 6902SOL    HW232046   2.023   3.074  17.361
 6903SOL     OW32047   2.674   3.448  17.446
 6903SOL    HW132048   2.706   3.458  17.352
 6903SOL    HW232049   2.595   3.386  17.448
 6904SOL     OW32050   2.632   3.192  17.060
 6904SOL    HW132051   2.586   3.105  17.077
 6904SOL    HW232052   2.723   3.189  17.101
 6905SOL     OW32053   3.214   1.914  16.927
 6905SOL    HW132054   3.249   1.873  16.843
 6905SOL    HW232055   3.124   1.876  16.947
 6906SOL     OW32056   2.737   3.508  17.096
 6906SOL    HW132057   2.660   3.473  17.042
 6906SOL    HW232058   2.705   3.579  17.158
 6907SOL     OW32059   2.087   3.999   0.996
 6907SOL    HW132060   2.122   3.982   1.088
 6907SOL    HW232061   1.999   3.954   0.984
 6908SOL     OW32062   1.881   4.092   0.647
 6908SOL    HW132063   1.799   4.135   0.686
 6908SOL    HW232064   1.853   4.019   0.584
 6909SOL     OW32065   2.997   4.427   0.717
 6909SOL    HW132066   3.054   4.505   0.692
 6909SOL    HW232067   2.937   4.453   0.793
 6910SOL     OW32068   2.712   4.522   1.823
 6910SOL    HW132069   2.708   4.598   1.888
 6910SOL    HW232070   2.734   4.558   1.732
 6911SOL     OW32071   1.975   4.461   1.597
 6911SOL    HW132072   2.063   4.448   1.642
 6911SOL    HW232073   1.962   4.558   1.575
 6912SOL     OW32074   2.671   3.728   0.502
 6912SOL    HW132075   2.711   3.819   0.493
 6912SOL    HW232076   2.571   3.736   0.508
 6913SOL     OW32077   2.179   3.975   1.801
 6913SOL    HW132078   2.250   4.046   1.807
 6913SOL    HW232079   2.091   4.014   1.829
 6914SOL     OW32080   3.143   4.069   0.944
 6914SOL    HW132081   3.057   4.019   0.931
 6914SOL    HW232082   3.205   4.015   1.000
 6915SOL     OW32083   3.256   4.193   1.674
 6915SOL    HW132084   3.236   4.236   1.762
 6915SOL    HW232085   3.334   4.131   1.683
 6916SOL     OW32086   2.727   4.072   0.195
 6916SOL    HW132087   2.786   4.135   0.146
 6916SOL    HW232088   2.746   3.978   0.166
 6917SOL     OW32089   3.581   4.309   1.831
 6917SOL    HW132090   3.555   4.398   1.795
 6917SOL    HW232091   3.579   4.241   1.758
 6918SOL     OW32092   2.412   3.920   0.885
 6918SOL    HW132093   2.407   3.915   0.985
 6918SOL    HW232094   2.414   4.016   0.856
 6919SOL     OW32095   2.064   4.009   1.498
 6919SOL    HW132096   1.984   4.069   1.485
 6919SOL    HW232097   2.054   3.960   1.584
 6920SOL     OW32098   2.476   3.846   0.117
 6920SOL    HW132099   2.574   3.824   0.124
 6920SOL    HW232100   2.445   3.829   0.024
 6921SOL     OW32101   2.643   3.988   1.749
 6921SOL    HW132102   2.710   3.927   1.792
 6921SOL    HW232103   2.570   4.007   1.814
 6922SOL     OW32104   2.784   4.227   0.899
 6922SOL    HW132105   2.759   4.218   0.803
 6922SOL    HW232106   2.832   4.145   0.930
 6923SOL     OW32107   2.401   3.788   0.512
 6923SOL    HW132108   2.320   3.789   0.570
 6923SOL    HW232109   2.404   3.871   0.457
 6924SOL     OW32110   2.159   3.759   0.171
 6924SOL    HW132111   2.208   3.843   0.150
 6924SOL    HW232112   2.221   3.694   0.216
 6925SOL     OW32113   2.797   3.960   0.480
 6925SOL    HW132114   2.749   4.001   0.402
 6925SOL    HW232115   2.896   3.958   0.461
 6926SOL     OW32116   2.423   3.946   1.147
 6926SOL    HW132117   2.461   3.862   1.184
 6926SOL    HW232118   2.335   3.965   1.191
 6927SOL     OW32119   3.291   4.897   0.867
 6927SOL    HW132120   3.236   4.813   0.860
 6927SOL    HW232121   3.317   4.926   0.775
 6928SOL     OW32122   2.389   3.980   0.328
 6928SOL    HW132123   2.416   3.921   0.253
 6928SOL    HW232124   2.389   4.075   0.297
 6929SOL     OW32125   2.777   3.813   1.402
 6929SOL    HW132126   2.802   3.793   1.307
 6929SOL    HW232127   2.849   3.869   1.444
 6930SOL     OW32128   2.264   4.475   1.598
 6930SOL    HW132129   2.332   4.530   1.551
 6930SOL    HW232130   2.304   4.387   1.625
 6931SOL     OW32131   3.449   4.503   1.670
 6931SOL    HW132132   3.357   4.541   1.665
 6931SOL    HW232133   3.509   4.550   1.605
 6932SOL     OW32134   2.875   3.829   1.770
 6932SOL    HW132135   2.881   3.914   1.718
 6932SOL    HW232136   2.907   3.753   1.713
 6933SOL     OW32137   2.366   3.774   1.740
 6933SOL    HW132138   2.324   3.717   1.670
 6933SOL    HW232139   2.300   3.843   1.772
 6934SOL     OW32140   3.222   4.586   1.045
 6934SOL    HW132141   3.147   4.586   0.979
 6934SOL    HW232142   3.259   4.494   1.054
 6935SOL     OW32143   2.169   3.937   1.231
 6935SOL    HW132144   2.146   3.974   1.321
 6935SOL    HW232145   2.139   3.842   1.225
 6936SOL     OW32146   2.594   4.358   1.064
 6936SOL    HW132147   2.653   4.332   0.988
 6936SOL    HW232148   2.566   4.454   1.053
 6937SOL     OW32149   3.590   4.659   1.854
 6937SOL    HW132150   3.544   4.652   1.765
 6937SOL    HW232151   3.528   4.703   1.920
 6938SOL     OW32152   2.212   4.622   1.804
 6938SOL    HW132153   2.288   4.666   1.852
 6938SOL    HW232154   2.247   4.575   1.722
 6939SOL     OW32155   3.165   4.562   0.042
 6939SOL    HW132156   3.199   4.469   0.057
 6939SOL    HW232157   3.183   4.589  -0.053
 6940SOL     OW32158   2.201   4.233   1.006
 6940SOL    HW132159   2.149   4.150   0.989
 6940SOL    HW232160   2.278   4.238   0.942
 6941SOL     OW32161   3.000   4.104   1.678
 6941SOL    HW132162   2.955   4.167   1.742
 6941SOL    HW232163   3.093   4.135   1.661
 6942SOL     OW32164   3.022   3.931   1.477
 6942SOL    HW132165   3.022   3.995   1.554
 6942SOL    HW232166   3.050   3.979   1.394
 6943SOL     OW32167   2.864   4.520   1.238
 6943SOL    HW132168   2.905   4.488   1.324
 6943SOL    HW232169   2.768   4.493   1.235
 6944SOL     OW32170   1.902   4.268   1.114
 6944SOL    HW132171   1.987   4.235   1.073
 6944SOL    HW232172   1.915   4.283   1.212
 6945SOL     OW32173   2.051   4.244   1.722
 6945SOL    HW132174   2.110   4.204   1.652
 6945SOL    HW232175   1.993   4.315   1.681
 6946SOL     OW32176   2.533   4.188   1.269
 6946SOL    HW132177   2.499   4.099   1.239
 6946SOL    HW232178   2.559   4.242   1.189
 6947SOL     OW32179   2.021   4.861   1.466
 6947SOL    HW132180   2.043   4.800   1.542
 6947SOL    HW232181   2.031   4.812   1.380
 6948SOL     OW32182   2.765   3.810   0.133
 6948SOL    HW132183   2.816   3.811   0.047
 6948SOL    HW232184   2.821   3.768   0.204
 6949SOL     OW32185   3.588   3.859   0.523
 6949SOL    HW132186   3.661   3.842   0.456
 6949SOL    HW232187   3.557   3.772   0.561
 6950SOL     OW32188   3.142   4.651   0.672
 6950SOL    HW132189   3.202   4.570   0.674
 6950SOL    HW232190   3.182   4.720   0.612
 6951SOL     OW32191   3.703   3.899   0.963
 6951SOL    HW132192   3.742   3.814   0.927
 6951SOL    HW232193   3.605   3.901   0.944
 6952SOL     OW32194   2.876   3.960   0.971
 6952SOL    HW132195   2.868   3.924   0.878
 6952SOL    HW232196   2.874   3.884   1.036
 6953SOL     OW32197   1.967   4.737   1.726
 6953SOL    HW132198   1.890   4.704   1.780
 6953SOL    HW232199   2.052   4.707   1.768
 6954SOL     OW32200   2.534   3.927   1.489
 6954SOL    HW132201   2.624   3.911   1.449
 6954SOL    HW232202   2.542   3.932   1.588
 6955SOL     OW32203   3.302   4.580   1.398
 6955SOL    HW132204   3.245   4.632   1.335
 6955SOL    HW232205   3.398   4.592   1.374
 6956SOL     OW32206   1.934   3.890   0.318
 6956SOL    HW132207   1.917   3.973   0.264
 6956SOL    HW232208   2.024   3.853   0.296
 6957SOL     OW32209   2.578   4.289   1.708
 6957SOL    HW132210   2.597   4.354   1.782
 6957SOL    HW232211   2.638   4.209   1.717
 6958SOL     OW32212   3.536   4.607   1.254
 6958SOL    HW132213   3.509   4.518   1.217
 6958SOL    HW232214   3.537   4.675   1.181
 6959SOL     OW32215   2.456   4.469   0.652
 6959SOL    HW132216   2.506   4.554   0.633
 6959SOL    HW232217   2.368   4.471   0.604
 6960SOL     OW32218   3.592   4.658   1.517
 6960SOL    HW132219   3.630   4.749   1.532
 6960SOL    HW232220   3.584   4.641   1.418
 6961SOL     OW32221   2.945   4.708   0.087
 6961SOL    HW132222   2.922   4.761   0.005
 6961SOL    HW232223   3.026   4.652   0.068
 6962SOL     OW32224   1.941   4.964   0.653
 6962SOL    HW132225   1.940   4.917   0.741
 6962SOL    HW232226   2.023   4.936   0.602
 6963SOL     OW32227   2.863   3.758   1.154
 6963SOL    HW132228   2.800   3.686   1.123
 6963SOL    HW232229   2.956   3.722   1.154
 6964SOL     OW32230   3.214   3.776   0.168
 6964SOL    HW132231   3.249   3.735   0.084
 6964SOL    HW232232   3.124   3.738   0.188
 6965SOL     OW32233   2.092   4.352   1.975
 6965SOL    HW132234   1.999   4.350   2.012
 6965SOL    HW232235   2.093   4.313   1.883
 6966SOL     OW32236   2.087   3.999   2.858
 6966SOL    HW132237   2.122   3.982   2.950
 6966SOL    HW232238   1.999   3.954   2.846
 6967SOL     OW32239   1.881   4.092   2.509
 6967SOL    HW132240   1.799   4.135   2.548
 6967SOL    HW232241   1.853   4.019   2.446
 6968SOL     OW32242   2.997   4.427   2.579
 6968SOL    HW132243   3.054   4.505   2.554
 6968SOL    HW232244   2.937   4.453   2.655
 6969SOL     OW32245   3.617   4.331   2.093
 6969SOL    HW132246   3.605   4.318   1.994
 6969SOL    HW232247   3.587   4.250   2.142
 6970SOL     OW32248   2.630   4.868   2.885
 6970SOL    HW132249   2.552   4.885   2.945
 6970SOL    HW232250   2.664   4.955   2.849
 6971SOL     OW32251   2.712   4.522   3.685
 6971SOL    HW132252   2.708   4.598   3.750
 6971SOL    HW232253   2.734   4.558   3.594
 6972SOL     OW32254   2.547   4.736   2.527
 6972SOL    HW132255   2.616   4.720   2.597
 6972SOL    HW232256   2.474   4.793   2.565
 6973SOL     OW32257   3.465   4.171   2.599
 6973SOL    HW132258   3.391   4.217   2.549
 6973SOL    HW232259   3.516   4.239   2.652
 6974SOL     OW32260   2.102   4.815   2.748
 6974SOL    HW132261   2.116   4.731   2.800
 6974SOL    HW232262   2.047   4.879   2.803
 6975SOL     OW32263   2.468   4.688   1.985
 6975SOL    HW132264   2.475   4.772   1.931
 6975SOL    HW232265   2.514   4.701   2.073
 6976SOL     OW32266   3.456   3.838   3.342
 6976SOL    HW132267   3.438   3.905   3.270
 6976SOL    HW232268   3.453   3.884   3.431
 6977SOL     OW32269   1.984   4.367   2.425
 6977SOL    HW132270   1.939   4.279   2.442
 6977SOL    HW232271   1.983   4.421   2.509
 6978SOL     OW32272   3.551   4.646   2.474
 6978SOL    HW132273   3.646   4.617   2.482
 6978SOL    HW232274   3.543   4.711   2.399
 6979SOL     OW32275   1.975   4.461   3.459
 6979SOL    HW132276   2.063   4.448   3.504
 6979SOL    HW232277   1.962   4.558   3.437
 6980SOL     OW32278   2.671   3.728   2.364
 6980SOL    HW132279   2.711   3.819   2.355
 6980SOL    HW232280   2.571   3.736   2.370
 6981SOL     OW32281   2.059   4.700   3.126
 6981SOL    HW132282   2.148   4.655   3.112
 6981SOL    HW232283   1.986   4.635   3.107
 6982SOL     OW32284   3.387   4.723   2.052
 6982SOL    HW132285   3.324   4.647   2.065
 6982SOL    HW232286   3.435   4.741   2.138
 6983SOL     OW32287   2.179   3.975   3.663
 6983SOL    HW132288   2.250   4.046   3.669
 6983SOL    HW232289   2.091   4.014   3.691
 6984SOL     OW32290   2.460   4.453   2.132
 6984SOL    HW132291   2.484   4.522   2.064
 6984SOL    HW232292   2.382   4.486   2.186
 6985SOL     OW32293   3.143   4.069   2.806
 6985SOL    HW132294   3.057   4.019   2.793
 6985SOL    HW232295   3.205   4.015   2.862
 6986SOL     OW32296   2.669   4.329   3.327
 6986SOL    HW132297   2.622   4.326   3.416
 6986SOL    HW232298   2.618   4.274   3.261
 6987SOL     OW32299   3.256   4.193   3.536
 6987SOL    HW132300   3.236   4.236   3.624
 6987SOL    HW232301   3.334   4.131   3.545
 6988SOL     OW32302   2.835   4.614   3.434
 6988SOL    HW132303   2.881   4.530   3.405
 6988SOL    HW232304   2.779   4.648   3.359
 6989SOL     OW32305   2.853   4.134   3.104
 6989SOL    HW132306   2.776   4.168   3.158
 6989SOL    HW232307   2.819   4.083   3.025
 6990SOL     OW32308   2.903   4.425   2.291
 6990SOL    HW132309   2.929   4.421   2.387
 6990SOL    HW232310   2.818   4.374   2.277
 6991SOL     OW32311   1.938   4.535   2.651
 6991SOL    HW132312   2.037   4.523   2.660
 6991SOL    HW232313   1.914   4.630   2.672
 6992SOL     OW32314   2.727   4.072   2.057
 6992SOL    HW132315   2.786   4.135   2.008
 6992SOL    HW232316   2.746   3.978   2.028
 6993SOL     OW32317   3.581   4.309   3.693
 6993SOL    HW132318   3.555   4.398   3.657
 6993SOL    HW232319   3.579   4.241   3.620
 6994SOL     OW32320   2.412   3.920   2.747
 6994SOL    HW132321   2.407   3.915   2.847
 6994SOL    HW232322   2.414   4.016   2.718
 6995SOL     OW32323   3.320   4.459   2.590
 6995SOL    HW132324   3.315   4.394   2.665
 6995SOL    HW232325   3.400   4.518   2.603
 6996SOL     OW32326   3.262   3.831   2.288
 6996SOL    HW132327   3.238   3.794   2.198
 6996SOL    HW232328   3.361   3.847   2.292
 6997SOL     OW32329   2.244   4.424   2.342
 6997SOL    HW132330   2.289   4.334   2.339
 6997SOL    HW232331   2.150   4.413   2.375
 6998SOL     OW32332   3.409   3.946   3.591
 6998SOL    HW132333   3.404   3.983   3.683
 6998SOL    HW232334   3.337   3.877   3.579
 6999SOL     OW32335   2.476   3.846   1.979
 6999SOL    HW132336   2.574   3.824   1.986
 6999SOL    HW232337   2.445   3.829   1.886
 7000SOL     OW32338   2.643   3.988   3.611
 7000SOL    HW132339   2.710   3.927   3.654
 7000SOL    HW232340   2.570   4.007   3.676
 7001SOL     OW32341   3.213   4.314   3.295
 7001SOL    HW132342   3.241   4.271   3.380
 7001SOL    HW232343   3.238   4.410   3.296
 7002SOL     OW32344   2.784   4.227   2.761
 7002SOL    HW132345   2.759   4.218   2.665
 7002SOL    HW232346   2.832   4.145   2.792
 7003SOL     OW32347   2.401   3.788   2.374
 7003SOL    HW132348   2.320   3.789   2.432
 7003SOL    HW232349   2.404   3.871   2.319
 7004SOL     OW32350   2.159   3.759   2.033
 7004SOL    HW132351   2.208   3.843   2.012
 7004SOL    HW232352   2.221   3.694   2.078
 7005SOL     OW32353   2.797   3.960   2.342
 7005SOL    HW132354   2.749   4.001   2.264
 7005SOL    HW232355   2.896   3.958   2.323
 7006SOL     OW32356   2.938   4.407   3.326
 7006SOL    HW132357   2.858   4.346   3.329
 7006SOL    HW232358   3.019   4.354   3.302
 7007SOL     OW32359   2.894   4.273   1.878
 7007SOL    HW132360   2.853   4.355   1.839
 7007SOL    HW232361   2.958   4.299   1.951
 7008SOL     OW32362   1.940   4.280   3.248
 7008SOL    HW132363   2.032   4.279   3.207
 7008SOL    HW232364   1.934   4.354   3.315
 7009SOL     OW32365   2.423   3.946   3.009
 7009SOL    HW132366   2.461   3.862   3.046
 7009SOL    HW232367   2.335   3.965   3.053
 7010SOL     OW32368   2.728   4.178   2.504
 7010SOL    HW132369   2.696   4.250   2.442
 7010SOL    HW232370   2.752   4.097   2.451
 7011SOL     OW32371   2.879   3.763   2.615
 7011SOL    HW132372   2.807   3.768   2.546
 7011SOL    HW232373   2.855   3.694   2.684
 7012SOL     OW32374   3.291   4.897   2.729
 7012SOL    HW132375   3.236   4.813   2.722
 7012SOL    HW232376   3.317   4.926   2.637
 7013SOL     OW32377   3.328   4.314   2.854
 7013SOL    HW132378   3.298   4.219   2.861
 7013SOL    HW232379   3.401   4.330   2.920
 7014SOL     OW32380   3.719   4.557   2.239
 7014SOL    HW132381   3.761   4.493   2.303
 7014SOL    HW232382   3.681   4.506   2.161
 7015SOL     OW32383   3.252   4.299   1.940
 7015SOL    HW132384   3.198   4.278   2.021
 7015SOL    HW232385   3.343   4.258   1.949
 7016SOL     OW32386   2.389   3.980   2.190
 7016SOL    HW132387   2.416   3.921   2.115
 7016SOL    HW232388   2.389   4.075   2.159
 7017SOL     OW32389   3.500   4.823   2.941
 7017SOL    HW132390   3.505   4.904   3.000
 7017SOL    HW232391   3.414   4.825   2.890
 7018SOL     OW32392   2.777   3.813   3.264
 7018SOL    HW132393   2.802   3.793   3.169
 7018SOL    HW232394   2.849   3.869   3.306
 7019SOL     OW32395   2.272   4.537   3.113
 7019SOL    HW132396   2.358   4.549   3.163
 7019SOL    HW232397   2.230   4.450   3.140
 7020SOL     OW32398   3.136   4.110   3.124
 7020SOL    HW132399   3.157   4.184   3.188
 7020SOL    HW232400   3.047   4.127   3.081
 7021SOL     OW32401   2.428   4.261   2.727
 7021SOL    HW132402   2.440   4.327   2.653
 7021SOL    HW232403   2.474   4.295   2.810
 7022SOL     OW32404   3.444   4.363   2.334
 7022SOL    HW132405   3.413   4.424   2.407
 7022SOL    HW232406   3.494   4.415   2.265
 7023SOL     OW32407   2.264   4.475   3.460
 7023SOL    HW132408   2.332   4.530   3.413
 7023SOL    HW232409   2.304   4.387   3.487
 7024SOL     OW32410   3.449   4.503   3.532
 7024SOL    HW132411   3.357   4.541   3.527
 7024SOL    HW232412   3.509   4.550   3.467
 7025SOL     OW32413   2.875   3.829   3.632
 7025SOL    HW132414   2.881   3.914   3.580
 7025SOL    HW232415   2.907   3.753   3.575
 7026SOL     OW32416   2.366   3.774   3.602
 7026SOL    HW132417   2.324   3.717   3.532
 7026SOL    HW232418   2.300   3.843   3.634
 7027SOL     OW32419   2.435   4.594   2.891
 7027SOL    HW132420   2.479   4.683   2.882
 7027SOL    HW232421   2.372   4.594   2.968
 7028SOL     OW32422   3.222   4.586   2.907
 7028SOL    HW132423   3.147   4.586   2.841
 7028SOL    HW232424   3.259   4.494   2.916
 7029SOL     OW32425   3.071   4.249   2.137
 7029SOL    HW132426   3.084   4.165   2.191
 7029SOL    HW232427   3.042   4.323   2.197
 7030SOL     OW32428   2.169   3.937   3.093
 7030SOL    HW132429   2.146   3.974   3.183
 7030SOL    HW232430   2.139   3.842   3.087
 7031SOL     OW32431   2.594   4.358   2.926
 7031SOL    HW132432   2.653   4.332   2.850
 7031SOL    HW232433   2.566   4.454   2.915
 7032SOL     OW32434   3.590   4.659   3.716
 7032SOL    HW132435   3.544   4.652   3.627
 7032SOL    HW232436   3.528   4.703   3.782
 7033SOL     OW32437   2.169   3.787   2.480
 7033SOL    HW132438   2.158   3.881   2.513
 7033SOL    HW232439   2.164   3.724   2.557
 7034SOL     OW32440   3.484   4.091   2.236
 7034SOL    HW132441   3.486   4.015   2.300
 7034SOL    HW232442   3.436   4.168   2.276
 7035SOL     OW32443   2.885   4.490   2.828
 7035SOL    HW132444   2.900   4.511   2.924
 7035SOL    HW232445   2.855   4.395   2.819
 7036SOL     OW32446   2.212   4.622   3.666
 7036SOL    HW132447   2.288   4.666   3.714
 7036SOL    HW232448   2.247   4.575   3.584
 7037SOL     OW32449   3.165   4.562   1.904
 7037SOL    HW132450   3.199   4.469   1.919
 7037SOL    HW232451   3.183   4.589   1.809
 7038SOL     OW32452   2.181   4.534   2.811
 7038SOL    HW132453   2.274   4.570   2.816
 7038SOL    HW232454   2.175   4.449   2.863
 7039SOL     OW32455   2.201   4.233   2.868
 7039SOL    HW132456   2.149   4.150   2.851
 7039SOL    HW232457   2.278   4.238   2.804
 7040SOL     OW32458   3.000   4.104   3.540
 7040SOL    HW132459   2.955   4.167   3.604
 7040SOL    HW232460   3.093   4.135   3.523
 7041SOL     OW32461   3.022   3.931   3.339
 7041SOL    HW132462   3.022   3.995   3.416
 7041SOL    HW232463   3.050   3.979   3.256
 7042SOL     OW32464   2.864   4.520   3.100
 7042SOL    HW132465   2.905   4.488   3.186
 7042SOL    HW232466   2.768   4.493   3.097
 7043SOL     OW32467   1.902   4.268   2.976
 7043SOL    HW132468   1.987   4.235   2.935
 7043SOL    HW232469   1.915   4.283   3.074
 7044SOL     OW32470   2.051   4.244   3.584
 7044SOL    HW132471   2.110   4.204   3.514
 7044SOL    HW232472   1.993   4.315   3.543
 7045SOL     OW32473   3.231   4.674   3.522
 7045SOL    HW132474   3.270   4.763   3.542
 7045SOL    HW232475   3.241   4.654   3.425
 7046SOL     OW32476   2.677   4.296   2.187
 7046SOL    HW132477   2.684   4.207   2.141
 7046SOL    HW232478   2.583   4.330   2.179
 7047SOL     OW32479   3.519   4.328   3.068
 7047SOL    HW132480   3.481   4.259   3.130
 7047SOL    HW232481   3.601   4.292   3.024
 7048SOL     OW32482   2.533   4.188   3.131
 7048SOL    HW132483   2.499   4.099   3.101
 7048SOL    HW232484   2.559   4.242   3.051
 7049SOL     OW32485   2.335   4.224   2.053
 7049SOL    HW132486   2.396   4.304   2.057
 7049SOL    HW232487   2.240   4.255   2.060
 7050SOL     OW32488   2.021   4.861   3.328
 7050SOL    HW132489   2.043   4.800   3.404
 7050SOL    HW232490   2.031   4.812   3.242
 7051SOL     OW32491   3.209   4.783   3.096
 7051SOL    HW132492   3.233   4.720   3.022
 7051SOL    HW232493   3.119   4.823   3.078
 7052SOL     OW32494   3.164   4.579   2.171
 7052SOL    HW132495   3.078   4.548   2.213
 7052SOL    HW232496   3.160   4.565   2.072
 7053SOL     OW32497   3.588   3.859   2.385
 7053SOL    HW132498   3.661   3.842   2.318
 7053SOL    HW232499   3.557   3.772   2.423
 7054SOL     OW32500   3.142   4.651   2.534
 7054SOL    HW132501   3.202   4.570   2.536
 7054SOL    HW232502   3.182   4.720   2.474
 7055SOL     OW32503   3.703   3.899   2.825
 7055SOL    HW132504   3.742   3.814   2.789
 7055SOL    HW232505   3.605   3.901   2.806
 7056SOL     OW32506   2.125   4.050   2.582
 7056SOL    HW132507   2.046   4.101   2.548
 7056SOL    HW232508   2.116   4.035   2.680
 7057SOL     OW32509   2.778   4.634   2.153
 7057SOL    HW132510   2.841   4.672   2.085
 7057SOL    HW232511   2.818   4.551   2.192
 7058SOL     OW32512   2.876   3.960   2.833
 7058SOL    HW132513   2.868   3.924   2.740
 7058SOL    HW232514   2.874   3.884   2.898
 7059SOL     OW32515   3.571   4.109   3.243
 7059SOL    HW132516   3.644   4.178   3.247
 7059SOL    HW232517   3.599   4.034   3.184
 7060SOL     OW32518   1.967   4.737   3.588
 7060SOL    HW132519   1.890   4.704   3.642
 7060SOL    HW232520   2.052   4.707   3.630
 7061SOL     OW32521   2.534   3.927   3.351
 7061SOL    HW132522   2.624   3.911   3.311
 7061SOL    HW232523   2.542   3.932   3.450
 7062SOL     OW32524   3.302   4.580   3.260
 7062SOL    HW132525   3.245   4.632   3.197
 7062SOL    HW232526   3.398   4.592   3.236
 7063SOL     OW32527   3.045   5.059   1.981
 7063SOL    HW132528   2.946   5.048   1.983
 7063SOL    HW232529   3.079   5.074   2.074
 7064SOL     OW32530   2.475   4.566   3.293
 7064SOL    HW132531   2.531   4.647   3.276
 7064SOL    HW232532   2.534   4.486   3.296
 7065SOL     OW32533   2.578   4.289   3.570
 7065SOL    HW132534   2.597   4.354   3.644
 7065SOL    HW232535   2.638   4.209   3.579
 7066SOL     OW32536   3.536   4.607   3.116
 7066SOL    HW132537   3.509   4.518   3.079
 7066SOL    HW232538   3.537   4.675   3.043
 7067SOL     OW32539   3.087   4.049   2.311
 7067SOL    HW132540   3.152   3.975   2.300
 7067SOL    HW232541   3.107   4.099   2.395
 7068SOL     OW32542   2.456   4.469   2.514
 7068SOL    HW132543   2.506   4.554   2.495
 7068SOL    HW232544   2.368   4.471   2.466
 7069SOL     OW32545   3.639   4.066   3.504
 7069SOL    HW132546   3.622   4.097   3.410
 7069SOL    HW232547   3.555   4.029   3.542
 7070SOL     OW32548   3.592   4.658   3.379
 7070SOL    HW132549   3.630   4.749   3.394
 7070SOL    HW232550   3.584   4.641   3.280
 7071SOL     OW32551   2.721   4.680   2.723
 7071SOL    HW132552   2.775   4.611   2.771
 7071SOL    HW232553   2.689   4.749   2.789
 7072SOL     OW32554   2.945   4.708   1.949
 7072SOL    HW132555   2.922   4.761   1.867
 7072SOL    HW232556   3.026   4.652   1.930
 7073SOL     OW32557   1.941   4.964   2.515
 7073SOL    HW132558   1.940   4.917   2.603
 7073SOL    HW232559   2.023   4.936   2.464
 7074SOL     OW32560   3.686   3.916   3.089
 7074SOL    HW132561   3.682   3.826   3.133
 7074SOL    HW232562   3.689   3.905   2.990
 7075SOL     OW32563   2.290   4.148   2.382
 7075SOL    HW132564   2.320   4.076   2.320
 7075SOL    HW232565   2.251   4.108   2.465
 7076SOL     OW32566   2.179   4.271   3.142
 7076SOL    HW132567   2.217   4.212   3.214
 7076SOL    HW232568   2.219   4.245   3.054
 7077SOL     OW32569   3.286   3.938   2.974
 7077SOL    HW132570   3.338   3.873   3.029
 7077SOL    HW232571   3.237   4.001   3.035
 7078SOL     OW32572   2.863   3.758   3.016
 7078SOL    HW132573   2.800   3.686   2.985
 7078SOL    HW232574   2.956   3.722   3.016
 7079SOL     OW32575   3.162   4.177   2.553
 7079SOL    HW132576   3.103   4.257   2.557
 7079SOL    HW232577   3.177   4.142   2.646
 7080SOL     OW32578   3.455   3.945   2.744
 7080SOL    HW132579   3.371   3.944   2.798
 7080SOL    HW232580   3.457   4.028   2.688
 7081SOL     OW32581   1.901   4.801   2.162
 7081SOL    HW132582   2.000   4.790   2.153
 7081SOL    HW232583   1.861   4.715   2.194
 7082SOL     OW32584   2.092   4.352   3.837
 7082SOL    HW132585   1.999   4.350   3.874
 7082SOL    HW232586   2.093   4.313   3.745
 7083SOL     OW32587   2.087   3.999   4.720
 7083SOL    HW132588   2.122   3.982   4.812
 7083SOL    HW232589   1.999   3.954   4.708
 7084SOL     OW32590   1.881   4.092   4.371
 7084SOL    HW132591   1.799   4.135   4.410
 7084SOL    HW232592   1.853   4.019   4.308
 7085SOL     OW32593   2.997   4.427   4.441
 7085SOL    HW132594   3.054   4.505   4.416
 7085SOL    HW232595   2.937   4.453   4.517
 7086SOL     OW32596   3.617   4.331   3.955
 7086SOL    HW132597   3.605   4.318   3.856
 7086SOL    HW232598   3.587   4.250   4.004
 7087SOL     OW32599   2.630   4.868   4.747
 7087SOL    HW132600   2.552   4.885   4.807
 7087SOL    HW232601   2.664   4.955   4.711
 7088SOL     OW32602   2.712   4.522   5.547
 7088SOL    HW132603   2.708   4.598   5.612
 7088SOL    HW232604   2.734   4.558   5.456
 7089SOL     OW32605   2.547   4.736   4.389
 7089SOL    HW132606   2.616   4.720   4.459
 7089SOL    HW232607   2.474   4.793   4.427
 7090SOL     OW32608   2.300   4.116   5.223
 7090SOL    HW132609   2.382   4.060   5.232
 7090SOL    HW232610   2.219   4.058   5.227
 7091SOL     OW32611   3.465   4.171   4.461
 7091SOL    HW132612   3.391   4.217   4.411
 7091SOL    HW232613   3.516   4.239   4.514
 7092SOL     OW32614   2.102   4.815   4.610
 7092SOL    HW132615   2.116   4.731   4.662
 7092SOL    HW232616   2.047   4.879   4.665
 7093SOL     OW32617   2.468   4.688   3.847
 7093SOL    HW132618   2.475   4.772   3.793
 7093SOL    HW232619   2.514   4.701   3.935
 7094SOL     OW32620   3.456   3.838   5.204
 7094SOL    HW132621   3.438   3.905   5.132
 7094SOL    HW232622   3.453   3.884   5.293
 7095SOL     OW32623   1.984   4.367   4.287
 7095SOL    HW132624   1.939   4.279   4.304
 7095SOL    HW232625   1.983   4.421   4.371
 7096SOL     OW32626   3.551   4.646   4.336
 7096SOL    HW132627   3.646   4.617   4.344
 7096SOL    HW232628   3.543   4.711   4.261
 7097SOL     OW32629   1.975   4.461   5.321
 7097SOL    HW132630   2.063   4.448   5.366
 7097SOL    HW232631   1.962   4.558   5.299
 7098SOL     OW32632   2.671   3.728   4.226
 7098SOL    HW132633   2.711   3.819   4.217
 7098SOL    HW232634   2.571   3.736   4.232
 7099SOL     OW32635   2.059   4.700   4.988
 7099SOL    HW132636   2.148   4.655   4.974
 7099SOL    HW232637   1.986   4.635   4.969
 7100SOL     OW32638   3.387   4.723   3.914
 7100SOL    HW132639   3.324   4.647   3.927
 7100SOL    HW232640   3.435   4.741   4.000
 7101SOL     OW32641   2.179   3.975   5.525
 7101SOL    HW132642   2.250   4.046   5.531
 7101SOL    HW232643   2.091   4.014   5.553
 7102SOL     OW32644   2.460   4.453   3.994
 7102SOL    HW132645   2.484   4.522   3.926
 7102SOL    HW232646   2.382   4.486   4.048
 7103SOL     OW32647   3.143   4.069   4.668
 7103SOL    HW132648   3.057   4.019   4.655
 7103SOL    HW232649   3.205   4.015   4.724
 7104SOL     OW32650   2.669   4.329   5.189
 7104SOL    HW132651   2.622   4.326   5.278
 7104SOL    HW232652   2.618   4.274   5.123
 7105SOL     OW32653   3.256   4.193   5.398
 7105SOL    HW132654   3.236   4.236   5.486
 7105SOL    HW232655   3.334   4.131   5.407
 7106SOL     OW32656   2.835   4.614   5.296
 7106SOL    HW132657   2.881   4.530   5.267
 7106SOL    HW232658   2.779   4.648   5.221
 7107SOL     OW32659   2.853   4.134   4.966
 7107SOL    HW132660   2.776   4.168   5.020
 7107SOL    HW232661   2.819   4.083   4.887
 7108SOL     OW32662   2.903   4.425   4.153
 7108SOL    HW132663   2.929   4.421   4.249
 7108SOL    HW232664   2.818   4.374   4.139
 7109SOL     OW32665   1.938   4.535   4.513
 7109SOL    HW132666   2.037   4.523   4.522
 7109SOL    HW232667   1.914   4.630   4.534
 7110SOL     OW32668   2.727   4.072   3.919
 7110SOL    HW132669   2.786   4.135   3.870
 7110SOL    HW232670   2.746   3.978   3.890
 7111SOL     OW32671   3.581   4.309   5.555
 7111SOL    HW132672   3.555   4.398   5.519
 7111SOL    HW232673   3.579   4.241   5.482
 7112SOL     OW32674   2.412   3.920   4.609
 7112SOL    HW132675   2.407   3.915   4.709
 7112SOL    HW232676   2.414   4.016   4.580
 7113SOL     OW32677   3.320   4.459   4.452
 7113SOL    HW132678   3.315   4.394   4.527
 7113SOL    HW232679   3.400   4.518   4.465
 7114SOL     OW32680   2.064   4.009   5.222
 7114SOL    HW132681   1.984   4.069   5.209
 7114SOL    HW232682   2.054   3.960   5.308
 7115SOL     OW32683   3.262   3.831   4.150
 7115SOL    HW132684   3.238   3.794   4.060
 7115SOL    HW232685   3.361   3.847   4.154
 7116SOL     OW32686   2.244   4.424   4.204
 7116SOL    HW132687   2.289   4.334   4.201
 7116SOL    HW232688   2.150   4.413   4.237
 7117SOL     OW32689   3.409   3.946   5.453
 7117SOL    HW132690   3.404   3.983   5.545
 7117SOL    HW232691   3.337   3.877   5.441
 7118SOL     OW32692   2.476   3.846   3.841
 7118SOL    HW132693   2.574   3.824   3.848
 7118SOL    HW232694   2.445   3.829   3.748
 7119SOL     OW32695   2.643   3.988   5.473
 7119SOL    HW132696   2.710   3.927   5.516
 7119SOL    HW232697   2.570   4.007   5.538
 7120SOL     OW32698   3.213   4.314   5.157
 7120SOL    HW132699   3.241   4.271   5.242
 7120SOL    HW232700   3.238   4.410   5.158
 7121SOL     OW32701   2.784   4.227   4.623
 7121SOL    HW132702   2.759   4.218   4.527
 7121SOL    HW232703   2.832   4.145   4.654
 7122SOL     OW32704   2.401   3.788   4.236
 7122SOL    HW132705   2.320   3.789   4.294
 7122SOL    HW232706   2.404   3.871   4.181
 7123SOL     OW32707   2.159   3.759   3.895
 7123SOL    HW132708   2.208   3.843   3.874
 7123SOL    HW232709   2.221   3.694   3.940
 7124SOL     OW32710   2.797   3.960   4.204
 7124SOL    HW132711   2.749   4.001   4.126
 7124SOL    HW232712   2.896   3.958   4.185
 7125SOL     OW32713   2.938   4.407   5.188
 7125SOL    HW132714   2.858   4.346   5.191
 7125SOL    HW232715   3.019   4.354   5.164
 7126SOL     OW32716   2.894   4.273   3.740
 7126SOL    HW132717   2.853   4.355   3.701
 7126SOL    HW232718   2.958   4.299   3.813
 7127SOL     OW32719   1.940   4.280   5.110
 7127SOL    HW132720   2.032   4.279   5.069
 7127SOL    HW232721   1.934   4.354   5.177
 7128SOL     OW32722   2.423   3.946   4.871
 7128SOL    HW132723   2.461   3.862   4.908
 7128SOL    HW232724   2.335   3.965   4.915
 7129SOL     OW32725   2.728   4.178   4.366
 7129SOL    HW132726   2.696   4.250   4.304
 7129SOL    HW232727   2.752   4.097   4.313
 7130SOL     OW32728   2.879   3.763   4.477
 7130SOL    HW132729   2.807   3.768   4.408
 7130SOL    HW232730   2.855   3.694   4.546
 7131SOL     OW32731   3.291   4.897   4.591
 7131SOL    HW132732   3.236   4.813   4.584
 7131SOL    HW232733   3.317   4.926   4.499
 7132SOL     OW32734   3.328   4.314   4.716
 7132SOL    HW132735   3.298   4.219   4.723
 7132SOL    HW232736   3.401   4.330   4.782
 7133SOL     OW32737   3.719   4.557   4.101
 7133SOL    HW132738   3.761   4.493   4.165
 7133SOL    HW232739   3.681   4.506   4.023
 7134SOL     OW32740   3.252   4.299   3.802
 7134SOL    HW132741   3.198   4.278   3.883
 7134SOL    HW232742   3.343   4.258   3.811
 7135SOL     OW32743   2.389   3.980   4.052
 7135SOL    HW132744   2.416   3.921   3.977
 7135SOL    HW232745   2.389   4.075   4.021
 7136SOL     OW32746   3.500   4.823   4.803
 7136SOL    HW132747   3.505   4.904   4.862
 7136SOL    HW232748   3.414   4.825   4.752
 7137SOL     OW32749   2.777   3.813   5.126
 7137SOL    HW132750   2.802   3.793   5.031
 7137SOL    HW232751   2.849   3.869   5.168
 7138SOL     OW32752   2.272   4.537   4.975
 7138SOL    HW132753   2.358   4.549   5.025
 7138SOL    HW232754   2.230   4.450   5.002
 7139SOL     OW32755   3.136   4.110   4.986
 7139SOL    HW132756   3.157   4.184   5.050
 7139SOL    HW232757   3.047   4.127   4.943
 7140SOL     OW32758   2.428   4.261   4.589
 7140SOL    HW132759   2.440   4.327   4.515
 7140SOL    HW232760   2.474   4.295   4.672
 7141SOL     OW32761   3.444   4.363   4.196
 7141SOL    HW132762   3.413   4.424   4.269
 7141SOL    HW232763   3.494   4.415   4.127
 7142SOL     OW32764   2.264   4.475   5.322
 7142SOL    HW132765   2.332   4.530   5.275
 7142SOL    HW232766   2.304   4.387   5.349
 7143SOL     OW32767   3.449   4.503   5.394
 7143SOL    HW132768   3.357   4.541   5.389
 7143SOL    HW232769   3.509   4.550   5.329
 7144SOL     OW32770   2.875   3.829   5.494
 7144SOL    HW132771   2.881   3.914   5.442
 7144SOL    HW232772   2.907   3.753   5.437
 7145SOL     OW32773   2.366   3.774   5.464
 7145SOL    HW132774   2.324   3.717   5.394
 7145SOL    HW232775   2.300   3.843   5.496
 7146SOL     OW32776   2.435   4.594   4.753
 7146SOL    HW132777   2.479   4.683   4.744
 7146SOL    HW232778   2.372   4.594   4.830
 7147SOL     OW32779   3.222   4.586   4.769
 7147SOL    HW132780   3.147   4.586   4.703
 7147SOL    HW232781   3.259   4.494   4.778
 7148SOL     OW32782   3.071   4.249   3.999
 7148SOL    HW132783   3.084   4.165   4.053
 7148SOL    HW232784   3.042   4.323   4.059
 7149SOL     OW32785   2.169   3.937   4.955
 7149SOL    HW132786   2.146   3.974   5.045
 7149SOL    HW232787   2.139   3.842   4.949
 7150SOL     OW32788   2.594   4.358   4.788
 7150SOL    HW132789   2.653   4.332   4.712
 7150SOL    HW232790   2.566   4.454   4.777
 7151SOL     OW32791   3.590   4.659   5.578
 7151SOL    HW132792   3.544   4.652   5.489
 7151SOL    HW232793   3.528   4.703   5.644
 7152SOL     OW32794   2.169   3.787   4.342
 7152SOL    HW132795   2.158   3.881   4.375
 7152SOL    HW232796   2.164   3.724   4.419
 7153SOL     OW32797   3.484   4.091   4.098
 7153SOL    HW132798   3.486   4.015   4.162
 7153SOL    HW232799   3.436   4.168   4.138
 7154SOL     OW32800   2.885   4.490   4.690
 7154SOL    HW132801   2.900   4.511   4.786
 7154SOL    HW232802   2.855   4.395   4.681
 7155SOL     OW32803   2.212   4.622   5.528
 7155SOL    HW132804   2.288   4.666   5.576
 7155SOL    HW232805   2.247   4.575   5.446
 7156SOL     OW32806   3.402   3.998   3.849
 7156SOL    HW132807   3.341   3.923   3.872
 7156SOL    HW232808   3.424   4.050   3.932
 7157SOL     OW32809   3.165   4.562   3.766
 7157SOL    HW132810   3.199   4.469   3.781
 7157SOL    HW232811   3.183   4.589   3.671
 7158SOL     OW32812   2.181   4.534   4.673
 7158SOL    HW132813   2.274   4.570   4.678
 7158SOL    HW232814   2.175   4.449   4.725
 7159SOL     OW32815   2.201   4.233   4.730
 7159SOL    HW132816   2.149   4.150   4.713
 7159SOL    HW232817   2.278   4.238   4.666
 7160SOL     OW32818   3.000   4.104   5.402
 7160SOL    HW132819   2.955   4.167   5.466
 7160SOL    HW232820   3.093   4.135   5.385
 7161SOL     OW32821   3.022   3.931   5.201
 7161SOL    HW132822   3.022   3.995   5.278
 7161SOL    HW232823   3.050   3.979   5.118
 7162SOL     OW32824   2.864   4.520   4.962
 7162SOL    HW132825   2.905   4.488   5.048
 7162SOL    HW232826   2.768   4.493   4.959
 7163SOL     OW32827   1.902   4.268   4.838
 7163SOL    HW132828   1.987   4.235   4.797
 7163SOL    HW232829   1.915   4.283   4.936
 7164SOL     OW32830   2.051   4.244   5.446
 7164SOL    HW132831   2.110   4.204   5.376
 7164SOL    HW232832   1.993   4.315   5.405
 7165SOL     OW32833   3.231   4.674   5.384
 7165SOL    HW132834   3.270   4.763   5.404
 7165SOL    HW232835   3.241   4.654   5.287
 7166SOL     OW32836   2.677   4.296   4.049
 7166SOL    HW132837   2.684   4.207   4.003
 7166SOL    HW232838   2.583   4.330   4.041
 7167SOL     OW32839   3.519   4.328   4.930
 7167SOL    HW132840   3.481   4.259   4.992
 7167SOL    HW232841   3.601   4.292   4.886
 7168SOL     OW32842   2.533   4.188   4.993
 7168SOL    HW132843   2.499   4.099   4.963
 7168SOL    HW232844   2.559   4.242   4.913
 7169SOL     OW32845   2.335   4.224   3.915
 7169SOL    HW132846   2.396   4.304   3.919
 7169SOL    HW232847   2.240   4.255   3.922
 7170SOL     OW32848   2.021   4.861   5.190
 7170SOL    HW132849   2.043   4.800   5.266
 7170SOL    HW232850   2.031   4.812   5.104
 7171SOL     OW32851   3.209   4.783   4.958
 7171SOL    HW132852   3.233   4.720   4.884
 7171SOL    HW232853   3.119   4.823   4.940
 7172SOL     OW32854   3.164   4.579   4.033
 7172SOL    HW132855   3.078   4.548   4.075
 7172SOL    HW232856   3.160   4.565   3.934
 7173SOL     OW32857   3.588   3.859   4.247
 7173SOL    HW132858   3.661   3.842   4.180
 7173SOL    HW232859   3.557   3.772   4.285
 7174SOL     OW32860   3.142   4.651   4.396
 7174SOL    HW132861   3.202   4.570   4.398
 7174SOL    HW232862   3.182   4.720   4.336
 7175SOL     OW32863   3.703   3.899   4.687
 7175SOL    HW132864   3.742   3.814   4.651
 7175SOL    HW232865   3.605   3.901   4.668
 7176SOL     OW32866   2.125   4.050   4.444
 7176SOL    HW132867   2.046   4.101   4.410
 7176SOL    HW232868   2.116   4.035   4.542
 7177SOL     OW32869   2.778   4.634   4.015
 7177SOL    HW132870   2.841   4.672   3.947
 7177SOL    HW232871   2.818   4.551   4.054
 7178SOL     OW32872   2.876   3.960   4.695
 7178SOL    HW132873   2.868   3.924   4.602
 7178SOL    HW232874   2.874   3.884   4.760
 7179SOL     OW32875   3.571   4.109   5.105
 7179SOL    HW132876   3.644   4.178   5.109
 7179SOL    HW232877   3.599   4.034   5.046
 7180SOL     OW32878   1.967   4.737   5.450
 7180SOL    HW132879   1.890   4.704   5.504
 7180SOL    HW232880   2.052   4.707   5.492
 7181SOL     OW32881   2.534   3.927   5.213
 7181SOL    HW132882   2.624   3.911   5.173
 7181SOL    HW232883   2.542   3.932   5.312
 7182SOL     OW32884   1.937   4.069   3.757
 7182SOL    HW132885   1.845   4.041   3.728
 7182SOL    HW232886   1.968   4.146   3.701
 7183SOL     OW32887   3.302   4.580   5.122
 7183SOL    HW132888   3.245   4.632   5.059
 7183SOL    HW232889   3.398   4.592   5.098
 7184SOL     OW32890   1.934   3.890   4.042
 7184SOL    HW132891   1.917   3.973   3.988
 7184SOL    HW232892   2.024   3.853   4.020
 7185SOL     OW32893   2.475   4.566   5.155
 7185SOL    HW132894   2.531   4.647   5.138
 7185SOL    HW232895   2.534   4.486   5.158
 7186SOL     OW32896   2.578   4.289   5.432
 7186SOL    HW132897   2.597   4.354   5.506
 7186SOL    HW232898   2.638   4.209   5.441
 7187SOL     OW32899   3.536   4.607   4.978
 7187SOL    HW132900   3.509   4.518   4.941
 7187SOL    HW232901   3.537   4.675   4.905
 7188SOL     OW32902   3.087   4.049   4.173
 7188SOL    HW132903   3.152   3.975   4.162
 7188SOL    HW232904   3.107   4.099   4.257
 7189SOL     OW32905   2.456   4.469   4.376
 7189SOL    HW132906   2.506   4.554   4.357
 7189SOL    HW232907   2.368   4.471   4.328
 7190SOL     OW32908   3.639   4.066   5.366
 7190SOL    HW132909   3.622   4.097   5.272
 7190SOL    HW232910   3.555   4.029   5.404
 7191SOL     OW32911   3.592   4.658   5.241
 7191SOL    HW132912   3.630   4.749   5.256
 7191SOL    HW232913   3.584   4.641   5.142
 7192SOL     OW32914   2.721   4.680   4.585
 7192SOL    HW132915   2.775   4.611   4.633
 7192SOL    HW232916   2.689   4.749   4.651
 7193SOL     OW32917   2.945   4.708   3.811
 7193SOL    HW132918   2.922   4.761   3.729
 7193SOL    HW232919   3.026   4.652   3.792
 7194SOL     OW32920   1.941   4.964   4.377
 7194SOL    HW132921   1.940   4.917   4.465
 7194SOL    HW232922   2.023   4.936   4.326
 7195SOL     OW32923   3.686   3.916   4.951
 7195SOL    HW132924   3.682   3.826   4.995
 7195SOL    HW232925   3.689   3.905   4.852
 7196SOL     OW32926   2.290   4.148   4.244
 7196SOL    HW132927   2.320   4.076   4.182
 7196SOL    HW232928   2.251   4.108   4.327
 7197SOL     OW32929   2.179   4.271   5.004
 7197SOL    HW132930   2.217   4.212   5.076
 7197SOL    HW232931   2.219   4.245   4.916
 7198SOL     OW32932   3.286   3.938   4.836
 7198SOL    HW132933   3.338   3.873   4.891
 7198SOL    HW232934   3.237   4.001   4.897
 7199SOL     OW32935   2.863   3.758   4.878
 7199SOL    HW132936   2.800   3.686   4.847
 7199SOL    HW232937   2.956   3.722   4.878
 7200SOL     OW32938   3.214   3.776   3.892
 7200SOL    HW132939   3.249   3.735   3.808
 7200SOL    HW232940   3.124   3.738   3.912
 7201SOL     OW32941   3.162   4.177   4.415
 7201SOL    HW132942   3.103   4.257   4.419
 7201SOL    HW232943   3.177   4.142   4.508
 7202SOL     OW32944   3.455   3.945   4.606
 7202SOL    HW132945   3.371   3.944   4.660
 7202SOL    HW232946   3.457   4.028   4.550
 7203SOL     OW32947   1.901   4.801   4.024
 7203SOL    HW132948   2.000   4.790   4.015
 7203SOL    HW232949   1.861   4.715   4.056
 7204SOL     OW32950   2.092   4.352   5.699
 7204SOL    HW132951   1.999   4.350   5.736
 7204SOL    HW232952   2.093   4.313   5.607
 7205SOL     OW32953   2.087   3.999   6.582
 7205SOL    HW132954   2.122   3.982   6.674
 7205SOL    HW232955   1.999   3.954   6.570
 7206SOL     OW32956   1.881   4.092   6.233
 7206SOL    HW132957   1.799   4.135   6.272
 7206SOL    HW232958   1.853   4.019   6.170
 7207SOL     OW32959   2.997   4.427   6.303
 7207SOL    HW132960   3.054   4.505   6.278
 7207SOL    HW232961   2.937   4.453   6.379
 7208SOL     OW32962   3.617   4.331   5.817
 7208SOL    HW132963   3.605   4.318   5.718
 7208SOL    HW232964   3.587   4.250   5.866
 7209SOL     OW32965   2.630   4.868   6.609
 7209SOL    HW132966   2.552   4.885   6.669
 7209SOL    HW232967   2.664   4.955   6.573
 7210SOL     OW32968   2.712   4.522   7.409
 7210SOL    HW132969   2.708   4.598   7.474
 7210SOL    HW232970   2.734   4.558   7.318
 7211SOL     OW32971   2.547   4.736   6.251
 7211SOL    HW132972   2.616   4.720   6.321
 7211SOL    HW232973   2.474   4.793   6.289
 7212SOL     OW32974   2.300   4.116   7.085
 7212SOL    HW132975   2.382   4.060   7.094
 7212SOL    HW232976   2.219   4.058   7.089
 7213SOL     OW32977   3.465   4.171   6.323
 7213SOL    HW132978   3.391   4.217   6.273
 7213SOL    HW232979   3.516   4.239   6.376
 7214SOL     OW32980   2.102   4.815   6.472
 7214SOL    HW132981   2.116   4.731   6.524
 7214SOL    HW232982   2.047   4.879   6.527
 7215SOL     OW32983   2.468   4.688   5.709
 7215SOL    HW132984   2.475   4.772   5.655
 7215SOL    HW232985   2.514   4.701   5.797
 7216SOL     OW32986   3.456   3.838   7.066
 7216SOL    HW132987   3.438   3.905   6.994
 7216SOL    HW232988   3.453   3.884   7.155
 7217SOL     OW32989   1.984   4.367   6.149
 7217SOL    HW132990   1.939   4.279   6.166
 7217SOL    HW232991   1.983   4.421   6.233
 7218SOL     OW32992   3.551   4.646   6.198
 7218SOL    HW132993   3.646   4.617   6.206
 7218SOL    HW232994   3.543   4.711   6.123
 7219SOL     OW32995   1.975   4.461   7.183
 7219SOL    HW132996   2.063   4.448   7.228
 7219SOL    HW232997   1.962   4.558   7.161
 7220SOL     OW32998   2.671   3.728   6.088
 7220SOL    HW132999   2.711   3.819   6.079
 7220SOL    HW233000   2.571   3.736   6.094
 7221SOL     OW33001   2.059   4.700   6.850
 7221SOL    HW133002   2.148   4.655   6.836
 7221SOL    HW233003   1.986   4.635   6.831
 7222SOL     OW33004   3.387   4.723   5.776
 7222SOL    HW133005   3.324   4.647   5.789
 7222SOL    HW233006   3.435   4.741   5.862
 7223SOL     OW33007   2.179   3.975   7.387
 7223SOL    HW133008   2.250   4.046   7.393
 7223SOL    HW233009   2.091   4.014   7.415
 7224SOL     OW33010   2.460   4.453   5.856
 7224SOL    HW133011   2.484   4.522   5.788
 7224SOL    HW233012   2.382   4.486   5.910
 7225SOL     OW33013   3.143   4.069   6.530
 7225SOL    HW133014   3.057   4.019   6.517
 7225SOL    HW233015   3.205   4.015   6.586
 7226SOL     OW33016   2.669   4.329   7.051
 7226SOL    HW133017   2.622   4.326   7.140
 7226SOL    HW233018   2.618   4.274   6.985
 7227SOL     OW33019   3.256   4.193   7.260
 7227SOL    HW133020   3.236   4.236   7.348
 7227SOL    HW233021   3.334   4.131   7.269
 7228SOL     OW33022   2.835   4.614   7.158
 7228SOL    HW133023   2.881   4.530   7.129
 7228SOL    HW233024   2.779   4.648   7.083
 7229SOL     OW33025   2.853   4.134   6.828
 7229SOL    HW133026   2.776   4.168   6.882
 7229SOL    HW233027   2.819   4.083   6.749
 7230SOL     OW33028   2.903   4.425   6.015
 7230SOL    HW133029   2.929   4.421   6.111
 7230SOL    HW233030   2.818   4.374   6.001
 7231SOL     OW33031   1.938   4.535   6.375
 7231SOL    HW133032   2.037   4.523   6.384
 7231SOL    HW233033   1.914   4.630   6.396
 7232SOL     OW33034   2.727   4.072   5.781
 7232SOL    HW133035   2.786   4.135   5.732
 7232SOL    HW233036   2.746   3.978   5.752
 7233SOL     OW33037   3.581   4.309   7.417
 7233SOL    HW133038   3.555   4.398   7.381
 7233SOL    HW233039   3.579   4.241   7.344
 7234SOL     OW33040   2.412   3.920   6.471
 7234SOL    HW133041   2.407   3.915   6.571
 7234SOL    HW233042   2.414   4.016   6.442
 7235SOL     OW33043   3.320   4.459   6.314
 7235SOL    HW133044   3.315   4.394   6.389
 7235SOL    HW233045   3.400   4.518   6.327
 7236SOL     OW33046   2.064   4.009   7.084
 7236SOL    HW133047   1.984   4.069   7.071
 7236SOL    HW233048   2.054   3.960   7.170
 7237SOL     OW33049   3.262   3.831   6.012
 7237SOL    HW133050   3.238   3.794   5.922
 7237SOL    HW233051   3.361   3.847   6.016
 7238SOL     OW33052   2.244   4.424   6.066
 7238SOL    HW133053   2.289   4.334   6.063
 7238SOL    HW233054   2.150   4.413   6.099
 7239SOL     OW33055   3.409   3.946   7.315
 7239SOL    HW133056   3.404   3.983   7.407
 7239SOL    HW233057   3.337   3.877   7.303
 7240SOL     OW33058   2.476   3.846   5.703
 7240SOL    HW133059   2.574   3.824   5.710
 7240SOL    HW233060   2.445   3.829   5.610
 7241SOL     OW33061   2.643   3.988   7.335
 7241SOL    HW133062   2.710   3.927   7.378
 7241SOL    HW233063   2.570   4.007   7.400
 7242SOL     OW33064   3.213   4.314   7.019
 7242SOL    HW133065   3.241   4.271   7.104
 7242SOL    HW233066   3.238   4.410   7.020
 7243SOL     OW33067   2.784   4.227   6.485
 7243SOL    HW133068   2.759   4.218   6.389
 7243SOL    HW233069   2.832   4.145   6.516
 7244SOL     OW33070   2.401   3.788   6.098
 7244SOL    HW133071   2.320   3.789   6.156
 7244SOL    HW233072   2.404   3.871   6.043
 7245SOL     OW33073   2.159   3.759   5.757
 7245SOL    HW133074   2.208   3.843   5.736
 7245SOL    HW233075   2.221   3.694   5.802
 7246SOL     OW33076   2.797   3.960   6.066
 7246SOL    HW133077   2.749   4.001   5.988
 7246SOL    HW233078   2.896   3.958   6.047
 7247SOL     OW33079   2.938   4.407   7.050
 7247SOL    HW133080   2.858   4.346   7.053
 7247SOL    HW233081   3.019   4.354   7.026
 7248SOL     OW33082   2.894   4.273   5.602
 7248SOL    HW133083   2.853   4.355   5.563
 7248SOL    HW233084   2.958   4.299   5.675
 7249SOL     OW33085   1.940   4.280   6.972
 7249SOL    HW133086   2.032   4.279   6.931
 7249SOL    HW233087   1.934   4.354   7.039
 7250SOL     OW33088   2.423   3.946   6.733
 7250SOL    HW133089   2.461   3.862   6.770
 7250SOL    HW233090   2.335   3.965   6.777
 7251SOL     OW33091   2.728   4.178   6.228
 7251SOL    HW133092   2.696   4.250   6.166
 7251SOL    HW233093   2.752   4.097   6.175
 7252SOL     OW33094   2.879   3.763   6.339
 7252SOL    HW133095   2.807   3.768   6.270
 7252SOL    HW233096   2.855   3.694   6.408
 7253SOL     OW33097   3.291   4.897   6.453
 7253SOL    HW133098   3.236   4.813   6.446
 7253SOL    HW233099   3.317   4.926   6.361
 7254SOL     OW33100   3.328   4.314   6.578
 7254SOL    HW133101   3.298   4.219   6.585
 7254SOL    HW233102   3.401   4.330   6.644
 7255SOL     OW33103   3.719   4.557   5.963
 7255SOL    HW133104   3.761   4.493   6.027
 7255SOL    HW233105   3.681   4.506   5.885
 7256SOL     OW33106   3.252   4.299   5.664
 7256SOL    HW133107   3.198   4.278   5.745
 7256SOL    HW233108   3.343   4.258   5.673
 7257SOL     OW33109   2.389   3.980   5.914
 7257SOL    HW133110   2.416   3.921   5.839
 7257SOL    HW233111   2.389   4.075   5.883
 7258SOL     OW33112   3.500   4.823   6.665
 7258SOL    HW133113   3.505   4.904   6.724
 7258SOL    HW233114   3.414   4.825   6.614
 7259SOL     OW33115   2.777   3.813   6.988
 7259SOL    HW133116   2.802   3.793   6.893
 7259SOL    HW233117   2.849   3.869   7.030
 7260SOL     OW33118   2.272   4.537   6.837
 7260SOL    HW133119   2.358   4.549   6.887
 7260SOL    HW233120   2.230   4.450   6.864
 7261SOL     OW33121   3.136   4.110   6.848
 7261SOL    HW133122   3.157   4.184   6.912
 7261SOL    HW233123   3.047   4.127   6.805
 7262SOL     OW33124   2.428   4.261   6.451
 7262SOL    HW133125   2.440   4.327   6.377
 7262SOL    HW233126   2.474   4.295   6.534
 7263SOL     OW33127   3.444   4.363   6.058
 7263SOL    HW133128   3.413   4.424   6.131
 7263SOL    HW233129   3.494   4.415   5.989
 7264SOL     OW33130   2.264   4.475   7.184
 7264SOL    HW133131   2.332   4.530   7.137
 7264SOL    HW233132   2.304   4.387   7.211
 7265SOL     OW33133   3.449   4.503   7.256
 7265SOL    HW133134   3.357   4.541   7.251
 7265SOL    HW233135   3.509   4.550   7.191
 7266SOL     OW33136   2.875   3.829   7.356
 7266SOL    HW133137   2.881   3.914   7.304
 7266SOL    HW233138   2.907   3.753   7.299
 7267SOL     OW33139   2.366   3.774   7.326
 7267SOL    HW133140   2.324   3.717   7.256
 7267SOL    HW233141   2.300   3.843   7.358
 7268SOL     OW33142   2.435   4.594   6.615
 7268SOL    HW133143   2.479   4.683   6.606
 7268SOL    HW233144   2.372   4.594   6.692
 7269SOL     OW33145   3.222   4.586   6.631
 7269SOL    HW133146   3.147   4.586   6.565
 7269SOL    HW233147   3.259   4.494   6.640
 7270SOL     OW33148   3.071   4.249   5.861
 7270SOL    HW133149   3.084   4.165   5.915
 7270SOL    HW233150   3.042   4.323   5.921
 7271SOL     OW33151   2.169   3.937   6.817
 7271SOL    HW133152   2.146   3.974   6.907
 7271SOL    HW233153   2.139   3.842   6.811
 7272SOL     OW33154   2.594   4.358   6.650
 7272SOL    HW133155   2.653   4.332   6.574
 7272SOL    HW233156   2.566   4.454   6.639
 7273SOL     OW33157   3.590   4.659   7.440
 7273SOL    HW133158   3.544   4.652   7.351
 7273SOL    HW233159   3.528   4.703   7.506
 7274SOL     OW33160   2.169   3.787   6.204
 7274SOL    HW133161   2.158   3.881   6.237
 7274SOL    HW233162   2.164   3.724   6.281
 7275SOL     OW33163   3.484   4.091   5.960
 7275SOL    HW133164   3.486   4.015   6.024
 7275SOL    HW233165   3.436   4.168   6.000
 7276SOL     OW33166   2.885   4.490   6.552
 7276SOL    HW133167   2.900   4.511   6.648
 7276SOL    HW233168   2.855   4.395   6.543
 7277SOL     OW33169   2.212   4.622   7.390
 7277SOL    HW133170   2.288   4.666   7.438
 7277SOL    HW233171   2.247   4.575   7.308
 7278SOL     OW33172   3.402   3.998   5.711
 7278SOL    HW133173   3.341   3.923   5.734
 7278SOL    HW233174   3.424   4.050   5.794
 7279SOL     OW33175   3.165   4.562   5.628
 7279SOL    HW133176   3.199   4.469   5.643
 7279SOL    HW233177   3.183   4.589   5.533
 7280SOL     OW33178   2.181   4.534   6.535
 7280SOL    HW133179   2.274   4.570   6.540
 7280SOL    HW233180   2.175   4.449   6.587
 7281SOL     OW33181   2.201   4.233   6.592
 7281SOL    HW133182   2.149   4.150   6.575
 7281SOL    HW233183   2.278   4.238   6.528
 7282SOL     OW33184   3.000   4.104   7.264
 7282SOL    HW133185   2.955   4.167   7.328
 7282SOL    HW233186   3.093   4.135   7.247
 7283SOL     OW33187   3.022   3.931   7.063
 7283SOL    HW133188   3.022   3.995   7.140
 7283SOL    HW233189   3.050   3.979   6.980
 7284SOL     OW33190   2.864   4.520   6.824
 7284SOL    HW133191   2.905   4.488   6.910
 7284SOL    HW233192   2.768   4.493   6.821
 7285SOL     OW33193   1.902   4.268   6.700
 7285SOL    HW133194   1.987   4.235   6.659
 7285SOL    HW233195   1.915   4.283   6.798
 7286SOL     OW33196   2.051   4.244   7.308
 7286SOL    HW133197   2.110   4.204   7.238
 7286SOL    HW233198   1.993   4.315   7.267
 7287SOL     OW33199   3.231   4.674   7.246
 7287SOL    HW133200   3.270   4.763   7.266
 7287SOL    HW233201   3.241   4.654   7.149
 7288SOL     OW33202   2.677   4.296   5.911
 7288SOL    HW133203   2.684   4.207   5.865
 7288SOL    HW233204   2.583   4.330   5.903
 7289SOL     OW33205   3.519   4.328   6.792
 7289SOL    HW133206   3.481   4.259   6.854
 7289SOL    HW233207   3.601   4.292   6.748
 7290SOL     OW33208   2.533   4.188   6.855
 7290SOL    HW133209   2.499   4.099   6.825
 7290SOL    HW233210   2.559   4.242   6.775
 7291SOL     OW33211   2.335   4.224   5.777
 7291SOL    HW133212   2.396   4.304   5.781
 7291SOL    HW233213   2.240   4.255   5.784
 7292SOL     OW33214   2.021   4.861   7.052
 7292SOL    HW133215   2.043   4.800   7.128
 7292SOL    HW233216   2.031   4.812   6.966
 7293SOL     OW33217   3.209   4.783   6.820
 7293SOL    HW133218   3.233   4.720   6.746
 7293SOL    HW233219   3.119   4.823   6.802
 7294SOL     OW33220   3.164   4.579   5.895
 7294SOL    HW133221   3.078   4.548   5.937
 7294SOL    HW233222   3.160   4.565   5.796
 7295SOL     OW33223   3.588   3.859   6.109
 7295SOL    HW133224   3.661   3.842   6.042
 7295SOL    HW233225   3.557   3.772   6.147
 7296SOL     OW33226   3.142   4.651   6.258
 7296SOL    HW133227   3.202   4.570   6.260
 7296SOL    HW233228   3.182   4.720   6.198
 7297SOL     OW33229   3.703   3.899   6.549
 7297SOL    HW133230   3.742   3.814   6.513
 7297SOL    HW233231   3.605   3.901   6.530
 7298SOL     OW33232   2.125   4.050   6.306
 7298SOL    HW133233   2.046   4.101   6.272
 7298SOL    HW233234   2.116   4.035   6.404
 7299SOL     OW33235   2.778   4.634   5.877
 7299SOL    HW133236   2.841   4.672   5.809
 7299SOL    HW233237   2.818   4.551   5.916
 7300SOL     OW33238   2.876   3.960   6.557
 7300SOL    HW133239   2.868   3.924   6.464
 7300SOL    HW233240   2.874   3.884   6.622
 7301SOL     OW33241   3.571   4.109   6.967
 7301SOL    HW133242   3.644   4.178   6.971
 7301SOL    HW233243   3.599   4.034   6.908
 7302SOL     OW33244   1.967   4.737   7.312
 7302SOL    HW133245   1.890   4.704   7.366
 7302SOL    HW233246   2.052   4.707   7.354
 7303SOL     OW33247   2.534   3.927   7.075
 7303SOL    HW133248   2.624   3.911   7.035
 7303SOL    HW233249   2.542   3.932   7.174
 7304SOL     OW33250   1.937   4.069   5.619
 7304SOL    HW133251   1.845   4.041   5.590
 7304SOL    HW233252   1.968   4.146   5.563
 7305SOL     OW33253   3.302   4.580   6.984
 7305SOL    HW133254   3.245   4.632   6.921
 7305SOL    HW233255   3.398   4.592   6.960
 7306SOL     OW33256   1.934   3.890   5.904
 7306SOL    HW133257   1.917   3.973   5.850
 7306SOL    HW233258   2.024   3.853   5.882
 7307SOL     OW33259   3.045   5.059   5.705
 7307SOL    HW133260   2.946   5.048   5.707
 7307SOL    HW233261   3.079   5.074   5.798
 7308SOL     OW33262   2.475   4.566   7.017
 7308SOL    HW133263   2.531   4.647   7.000
 7308SOL    HW233264   2.534   4.486   7.020
 7309SOL     OW33265   2.578   4.289   7.294
 7309SOL    HW133266   2.597   4.354   7.368
 7309SOL    HW233267   2.638   4.209   7.303
 7310SOL     OW33268   3.536   4.607   6.840
 7310SOL    HW133269   3.509   4.518   6.803
 7310SOL    HW233270   3.537   4.675   6.767
 7311SOL     OW33271   3.087   4.049   6.035
 7311SOL    HW133272   3.152   3.975   6.024
 7311SOL    HW233273   3.107   4.099   6.119
 7312SOL     OW33274   2.456   4.469   6.238
 7312SOL    HW133275   2.506   4.554   6.219
 7312SOL    HW233276   2.368   4.471   6.190
 7313SOL     OW33277   3.639   4.066   7.228
 7313SOL    HW133278   3.622   4.097   7.134
 7313SOL    HW233279   3.555   4.029   7.266
 7314SOL     OW33280   3.592   4.658   7.103
 7314SOL    HW133281   3.630   4.749   7.118
 7314SOL    HW233282   3.584   4.641   7.004
 7315SOL     OW33283   2.721   4.680   6.447
 7315SOL    HW133284   2.775   4.611   6.495
 7315SOL    HW233285   2.689   4.749   6.513
 7316SOL     OW33286   2.945   4.708   5.673
 7316SOL    HW133287   2.922   4.761   5.591
 7316SOL    HW233288   3.026   4.652   5.654
 7317SOL     OW33289   1.941   4.964   6.239
 7317SOL    HW133290   1.940   4.917   6.327
 7317SOL    HW233291   2.023   4.936   6.188
 7318SOL     OW33292   3.686   3.916   6.813
 7318SOL    HW133293   3.682   3.826   6.857
 7318SOL    HW233294   3.689   3.905   6.714
 7319SOL     OW33295   2.290   4.148   6.106
 7319SOL    HW133296   2.320   4.076   6.044
 7319SOL    HW233297   2.251   4.108   6.189
 7320SOL     OW33298   2.179   4.271   6.866
 7320SOL    HW133299   2.217   4.212   6.938
 7320SOL    HW233300   2.219   4.245   6.778
 7321SOL     OW33301   3.286   3.938   6.698
 7321SOL    HW133302   3.338   3.873   6.753
 7321SOL    HW233303   3.237   4.001   6.759
 7322SOL     OW33304   2.863   3.758   6.740
 7322SOL    HW133305   2.800   3.686   6.709
 7322SOL    HW233306   2.956   3.722   6.740
 7323SOL     OW33307   3.214   3.776   5.754
 7323SOL    HW133308   3.249   3.735   5.670
 7323SOL    HW233309   3.124   3.738   5.774
 7324SOL     OW33310   3.162   4.177   6.277
 7324SOL    HW133311   3.103   4.257   6.281
 7324SOL    HW233312   3.177   4.142   6.370
 7325SOL     OW33313   3.455   3.945   6.468
 7325SOL    HW133314   3.371   3.944   6.522
 7325SOL    HW233315   3.457   4.028   6.412
 7326SOL     OW33316   1.901   4.801   5.886
 7326SOL    HW133317   2.000   4.790   5.877
 7326SOL    HW233318   1.861   4.715   5.918
 7327SOL     OW33319   2.092   4.352   7.561
 7327SOL    HW133320   1.999   4.350   7.598
 7327SOL    HW233321   2.093   4.313   7.469
 7328SOL     OW33322   2.087   3.999   8.444
 7328SOL    HW133323   2.122   3.982   8.536
 7328SOL    HW233324   1.999   3.954   8.432
 7329SOL     OW33325   1.881   4.092   8.095
 7329SOL    HW133326   1.799   4.135   8.134
 7329SOL    HW233327   1.853   4.019   8.032
 7330SOL     OW33328   2.997   4.427   8.165
 7330SOL    HW133329   3.054   4.505   8.140
 7330SOL    HW233330   2.937   4.453   8.241
 7331SOL     OW33331   3.617   4.331   7.679
 7331SOL    HW133332   3.605   4.318   7.580
 7331SOL    HW233333   3.587   4.250   7.728
 7332SOL     OW33334   2.630   4.868   8.471
 7332SOL    HW133335   2.552   4.885   8.531
 7332SOL    HW233336   2.664   4.955   8.435
 7333SOL     OW33337   2.547   4.736   8.113
 7333SOL    HW133338   2.616   4.720   8.183
 7333SOL    HW233339   2.474   4.793   8.151
 7334SOL     OW33340   2.300   4.116   8.947
 7334SOL    HW133341   2.382   4.060   8.956
 7334SOL    HW233342   2.219   4.058   8.951
 7335SOL     OW33343   3.465   4.171   8.185
 7335SOL    HW133344   3.391   4.217   8.135
 7335SOL    HW233345   3.516   4.239   8.238
 7336SOL     OW33346   2.102   4.815   8.334
 7336SOL    HW133347   2.116   4.731   8.386
 7336SOL    HW233348   2.047   4.879   8.389
 7337SOL     OW33349   2.468   4.688   7.571
 7337SOL    HW133350   2.475   4.772   7.517
 7337SOL    HW233351   2.514   4.701   7.659
 7338SOL     OW33352   3.456   3.838   8.928
 7338SOL    HW133353   3.438   3.905   8.856
 7338SOL    HW233354   3.453   3.884   9.017
 7339SOL     OW33355   1.984   4.367   8.011
 7339SOL    HW133356   1.939   4.279   8.028
 7339SOL    HW233357   1.983   4.421   8.095
 7340SOL     OW33358   3.551   4.646   8.060
 7340SOL    HW133359   3.646   4.617   8.068
 7340SOL    HW233360   3.543   4.711   7.985
 7341SOL     OW33361   2.671   3.728   7.950
 7341SOL    HW133362   2.711   3.819   7.941
 7341SOL    HW233363   2.571   3.736   7.956
 7342SOL     OW33364   2.059   4.700   8.712
 7342SOL    HW133365   2.148   4.655   8.698
 7342SOL    HW233366   1.986   4.635   8.693
 7343SOL     OW33367   3.387   4.723   7.638
 7343SOL    HW133368   3.324   4.647   7.651
 7343SOL    HW233369   3.435   4.741   7.724
 7344SOL     OW33370   2.179   3.975   9.249
 7344SOL    HW133371   2.250   4.046   9.255
 7344SOL    HW233372   2.091   4.014   9.277
 7345SOL     OW33373   2.460   4.453   7.718
 7345SOL    HW133374   2.484   4.522   7.650
 7345SOL    HW233375   2.382   4.486   7.772
 7346SOL     OW33376   3.143   4.069   8.392
 7346SOL    HW133377   3.057   4.019   8.379
 7346SOL    HW233378   3.205   4.015   8.448
 7347SOL     OW33379   2.669   4.329   8.913
 7347SOL    HW133380   2.622   4.326   9.002
 7347SOL    HW233381   2.618   4.274   8.847
 7348SOL     OW33382   3.256   4.193   9.122
 7348SOL    HW133383   3.236   4.236   9.210
 7348SOL    HW233384   3.334   4.131   9.131
 7349SOL     OW33385   2.835   4.614   9.020
 7349SOL    HW133386   2.881   4.530   8.991
 7349SOL    HW233387   2.779   4.648   8.945
 7350SOL     OW33388   2.853   4.134   8.690
 7350SOL    HW133389   2.776   4.168   8.744
 7350SOL    HW233390   2.819   4.083   8.611
 7351SOL     OW33391   2.903   4.425   7.877
 7351SOL    HW133392   2.929   4.421   7.973
 7351SOL    HW233393   2.818   4.374   7.863
 7352SOL     OW33394   1.938   4.535   8.237
 7352SOL    HW133395   2.037   4.523   8.246
 7352SOL    HW233396   1.914   4.630   8.258
 7353SOL     OW33397   2.727   4.072   7.643
 7353SOL    HW133398   2.786   4.135   7.594
 7353SOL    HW233399   2.746   3.978   7.614
 7354SOL     OW33400   3.581   4.309   9.279
 7354SOL    HW133401   3.555   4.398   9.243
 7354SOL    HW233402   3.579   4.241   9.206
 7355SOL     OW33403   2.412   3.920   8.333
 7355SOL    HW133404   2.407   3.915   8.433
 7355SOL    HW233405   2.414   4.016   8.304
 7356SOL     OW33406   3.320   4.459   8.176
 7356SOL    HW133407   3.315   4.394   8.251
 7356SOL    HW233408   3.400   4.518   8.189
 7357SOL     OW33409   2.244   4.424   7.928
 7357SOL    HW133410   2.289   4.334   7.925
 7357SOL    HW233411   2.150   4.413   7.961
 7358SOL     OW33412   3.409   3.946   9.177
 7358SOL    HW133413   3.404   3.983   9.269
 7358SOL    HW233414   3.337   3.877   9.165
 7359SOL     OW33415   2.476   3.846   7.565
 7359SOL    HW133416   2.574   3.824   7.572
 7359SOL    HW233417   2.445   3.829   7.472
 7360SOL     OW33418   2.643   3.988   9.197
 7360SOL    HW133419   2.710   3.927   9.240
 7360SOL    HW233420   2.570   4.007   9.262
 7361SOL     OW33421   3.213   4.314   8.881
 7361SOL    HW133422   3.241   4.271   8.966
 7361SOL    HW233423   3.238   4.410   8.882
 7362SOL     OW33424   2.784   4.227   8.347
 7362SOL    HW133425   2.759   4.218   8.251
 7362SOL    HW233426   2.832   4.145   8.378
 7363SOL     OW33427   2.401   3.788   7.960
 7363SOL    HW133428   2.320   3.789   8.018
 7363SOL    HW233429   2.404   3.871   7.905
 7364SOL     OW33430   2.159   3.759   7.619
 7364SOL    HW133431   2.208   3.843   7.598
 7364SOL    HW233432   2.221   3.694   7.664
 7365SOL     OW33433   2.797   3.960   7.928
 7365SOL    HW133434   2.749   4.001   7.850
 7365SOL    HW233435   2.896   3.958   7.909
 7366SOL     OW33436   2.938   4.407   8.912
 7366SOL    HW133437   2.858   4.346   8.915
 7366SOL    HW233438   3.019   4.354   8.888
 7367SOL     OW33439   2.894   4.273   7.464
 7367SOL    HW133440   2.853   4.355   7.425
 7367SOL    HW233441   2.958   4.299   7.537
 7368SOL     OW33442   1.940   4.280   8.834
 7368SOL    HW133443   2.032   4.279   8.793
 7368SOL    HW233444   1.934   4.354   8.901
 7369SOL     OW33445   2.423   3.946   8.595
 7369SOL    HW133446   2.461   3.862   8.632
 7369SOL    HW233447   2.335   3.965   8.639
 7370SOL     OW33448   2.728   4.178   8.090
 7370SOL    HW133449   2.696   4.250   8.028
 7370SOL    HW233450   2.752   4.097   8.037
 7371SOL     OW33451   2.879   3.763   8.201
 7371SOL    HW133452   2.807   3.768   8.132
 7371SOL    HW233453   2.855   3.694   8.270
 7372SOL     OW33454   3.291   4.897   8.315
 7372SOL    HW133455   3.236   4.813   8.308
 7372SOL    HW233456   3.317   4.926   8.223
 7373SOL     OW33457   3.328   4.314   8.440
 7373SOL    HW133458   3.298   4.219   8.447
 7373SOL    HW233459   3.401   4.330   8.506
 7374SOL     OW33460   3.719   4.557   7.825
 7374SOL    HW133461   3.761   4.493   7.889
 7374SOL    HW233462   3.681   4.506   7.747
 7375SOL     OW33463   3.252   4.299   7.526
 7375SOL    HW133464   3.198   4.278   7.607
 7375SOL    HW233465   3.343   4.258   7.535
 7376SOL     OW33466   2.389   3.980   7.776
 7376SOL    HW133467   2.416   3.921   7.701
 7376SOL    HW233468   2.389   4.075   7.745
 7377SOL     OW33469   3.500   4.823   8.527
 7377SOL    HW133470   3.505   4.904   8.586
 7377SOL    HW233471   3.414   4.825   8.476
 7378SOL     OW33472   2.777   3.813   8.850
 7378SOL    HW133473   2.802   3.793   8.755
 7378SOL    HW233474   2.849   3.869   8.892
 7379SOL     OW33475   2.272   4.537   8.699
 7379SOL    HW133476   2.358   4.549   8.749
 7379SOL    HW233477   2.230   4.450   8.726
 7380SOL     OW33478   3.136   4.110   8.710
 7380SOL    HW133479   3.157   4.184   8.774
 7380SOL    HW233480   3.047   4.127   8.667
 7381SOL     OW33481   2.428   4.261   8.313
 7381SOL    HW133482   2.440   4.327   8.239
 7381SOL    HW233483   2.474   4.295   8.396
 7382SOL     OW33484   3.444   4.363   7.920
 7382SOL    HW133485   3.413   4.424   7.993
 7382SOL    HW233486   3.494   4.415   7.851
 7383SOL     OW33487   2.264   4.475   9.046
 7383SOL    HW133488   2.332   4.530   8.999
 7383SOL    HW233489   2.304   4.387   9.073
 7384SOL     OW33490   3.449   4.503   9.118
 7384SOL    HW133491   3.357   4.541   9.113
 7384SOL    HW233492   3.509   4.550   9.053
 7385SOL     OW33493   2.875   3.829   9.218
 7385SOL    HW133494   2.881   3.914   9.166
 7385SOL    HW233495   2.907   3.753   9.161
 7386SOL     OW33496   2.366   3.774   9.188
 7386SOL    HW133497   2.324   3.717   9.118
 7386SOL    HW233498   2.300   3.843   9.220
 7387SOL     OW33499   2.435   4.594   8.477
 7387SOL    HW133500   2.479   4.683   8.468
 7387SOL    HW233501   2.372   4.594   8.554
 7388SOL     OW33502   3.222   4.586   8.493
 7388SOL    HW133503   3.147   4.586   8.427
 7388SOL    HW233504   3.259   4.494   8.502
 7389SOL     OW33505   3.071   4.249   7.723
 7389SOL    HW133506   3.084   4.165   7.777
 7389SOL    HW233507   3.042   4.323   7.783
 7390SOL     OW33508   2.169   3.937   8.679
 7390SOL    HW133509   2.146   3.974   8.769
 7390SOL    HW233510   2.139   3.842   8.673
 7391SOL     OW33511   2.594   4.358   8.512
 7391SOL    HW133512   2.653   4.332   8.436
 7391SOL    HW233513   2.566   4.454   8.501
 7392SOL     OW33514   3.590   4.659   9.302
 7392SOL    HW133515   3.544   4.652   9.213
 7392SOL    HW233516   3.528   4.703   9.368
 7393SOL     OW33517   2.169   3.787   8.066
 7393SOL    HW133518   2.158   3.881   8.099
 7393SOL    HW233519   2.164   3.724   8.143
 7394SOL     OW33520   3.484   4.091   7.822
 7394SOL    HW133521   3.486   4.015   7.886
 7394SOL    HW233522   3.436   4.168   7.862
 7395SOL     OW33523   2.885   4.490   8.414
 7395SOL    HW133524   2.900   4.511   8.510
 7395SOL    HW233525   2.855   4.395   8.405
 7396SOL     OW33526   2.212   4.622   9.252
 7396SOL    HW133527   2.288   4.666   9.300
 7396SOL    HW233528   2.247   4.575   9.170
 7397SOL     OW33529   3.402   3.998   7.573
 7397SOL    HW133530   3.341   3.923   7.596
 7397SOL    HW233531   3.424   4.050   7.656
 7398SOL     OW33532   3.165   4.562   7.490
 7398SOL    HW133533   3.199   4.469   7.505
 7398SOL    HW233534   3.183   4.589   7.395
 7399SOL     OW33535   2.181   4.534   8.397
 7399SOL    HW133536   2.274   4.570   8.402
 7399SOL    HW233537   2.175   4.449   8.449
 7400SOL     OW33538   2.201   4.233   8.454
 7400SOL    HW133539   2.149   4.150   8.437
 7400SOL    HW233540   2.278   4.238   8.390
 7401SOL     OW33541   3.000   4.104   9.126
 7401SOL    HW133542   2.955   4.167   9.190
 7401SOL    HW233543   3.093   4.135   9.109
 7402SOL     OW33544   3.022   3.931   8.925
 7402SOL    HW133545   3.022   3.995   9.002
 7402SOL    HW233546   3.050   3.979   8.842
 7403SOL     OW33547   2.864   4.520   8.686
 7403SOL    HW133548   2.905   4.488   8.772
 7403SOL    HW233549   2.768   4.493   8.683
 7404SOL     OW33550   1.902   4.268   8.562
 7404SOL    HW133551   1.987   4.235   8.521
 7404SOL    HW233552   1.915   4.283   8.660
 7405SOL     OW33553   3.231   4.674   9.108
 7405SOL    HW133554   3.270   4.763   9.128
 7405SOL    HW233555   3.241   4.654   9.011
 7406SOL     OW33556   2.677   4.296   7.773
 7406SOL    HW133557   2.684   4.207   7.727
 7406SOL    HW233558   2.583   4.330   7.765
 7407SOL     OW33559   3.519   4.328   8.654
 7407SOL    HW133560   3.481   4.259   8.716
 7407SOL    HW233561   3.601   4.292   8.610
 7408SOL     OW33562   2.533   4.188   8.717
 7408SOL    HW133563   2.499   4.099   8.687
 7408SOL    HW233564   2.559   4.242   8.637
 7409SOL     OW33565   2.335   4.224   7.639
 7409SOL    HW133566   2.396   4.304   7.643
 7409SOL    HW233567   2.240   4.255   7.646
 7410SOL     OW33568   2.021   4.861   8.914
 7410SOL    HW133569   2.043   4.800   8.990
 7410SOL    HW233570   2.031   4.812   8.828
 7411SOL     OW33571   3.209   4.783   8.682
 7411SOL    HW133572   3.233   4.720   8.608
 7411SOL    HW233573   3.119   4.823   8.664
 7412SOL     OW33574   3.164   4.579   7.757
 7412SOL    HW133575   3.078   4.548   7.799
 7412SOL    HW233576   3.160   4.565   7.658
 7413SOL     OW33577   3.588   3.859   7.971
 7413SOL    HW133578   3.661   3.842   7.904
 7413SOL    HW233579   3.557   3.772   8.009
 7414SOL     OW33580   3.142   4.651   8.120
 7414SOL    HW133581   3.202   4.570   8.122
 7414SOL    HW233582   3.182   4.720   8.060
 7415SOL     OW33583   3.703   3.899   8.411
 7415SOL    HW133584   3.742   3.814   8.375
 7415SOL    HW233585   3.605   3.901   8.392
 7416SOL     OW33586   2.125   4.050   8.168
 7416SOL    HW133587   2.046   4.101   8.134
 7416SOL    HW233588   2.116   4.035   8.266
 7417SOL     OW33589   2.778   4.634   7.739
 7417SOL    HW133590   2.841   4.672   7.671
 7417SOL    HW233591   2.818   4.551   7.778
 7418SOL     OW33592   2.876   3.960   8.419
 7418SOL    HW133593   2.868   3.924   8.326
 7418SOL    HW233594   2.874   3.884   8.484
 7419SOL     OW33595   3.571   4.109   8.829
 7419SOL    HW133596   3.644   4.178   8.833
 7419SOL    HW233597   3.599   4.034   8.770
 7420SOL     OW33598   2.534   3.927   8.937
 7420SOL    HW133599   2.624   3.911   8.897
 7420SOL    HW233600   2.542   3.932   9.036
 7421SOL     OW33601   1.937   4.069   7.481
 7421SOL    HW133602   1.845   4.041   7.452
 7421SOL    HW233603   1.968   4.146   7.425
 7422SOL     OW33604   3.302   4.580   8.846
 7422SOL    HW133605   3.245   4.632   8.783
 7422SOL    HW233606   3.398   4.592   8.822
 7423SOL     OW33607   1.934   3.890   7.766
 7423SOL    HW133608   1.917   3.973   7.712
 7423SOL    HW233609   2.024   3.853   7.744
 7424SOL     OW33610   3.045   5.059   7.567
 7424SOL    HW133611   2.946   5.048   7.569
 7424SOL    HW233612   3.079   5.074   7.660
 7425SOL     OW33613   2.475   4.566   8.879
 7425SOL    HW133614   2.531   4.647   8.862
 7425SOL    HW233615   2.534   4.486   8.882
 7426SOL     OW33616   2.578   4.289   9.156
 7426SOL    HW133617   2.597   4.354   9.230
 7426SOL    HW233618   2.638   4.209   9.165
 7427SOL     OW33619   3.087   4.049   7.897
 7427SOL    HW133620   3.152   3.975   7.886
 7427SOL    HW233621   3.107   4.099   7.981
 7428SOL     OW33622   2.456   4.469   8.100
 7428SOL    HW133623   2.506   4.554   8.081
 7428SOL    HW233624   2.368   4.471   8.052
 7429SOL     OW33625   3.639   4.066   9.090
 7429SOL    HW133626   3.622   4.097   8.996
 7429SOL    HW233627   3.555   4.029   9.128
 7430SOL     OW33628   3.592   4.658   8.965
 7430SOL    HW133629   3.630   4.749   8.980
 7430SOL    HW233630   3.584   4.641   8.866
 7431SOL     OW33631   2.721   4.680   8.309
 7431SOL    HW133632   2.775   4.611   8.357
 7431SOL    HW233633   2.689   4.749   8.375
 7432SOL     OW33634   2.945   4.708   7.535
 7432SOL    HW133635   2.922   4.761   7.453
 7432SOL    HW233636   3.026   4.652   7.516
 7433SOL     OW33637   1.941   4.964   8.101
 7433SOL    HW133638   1.940   4.917   8.189
 7433SOL    HW233639   2.023   4.936   8.050
 7434SOL     OW33640   3.686   3.916   8.675
 7434SOL    HW133641   3.682   3.826   8.719
 7434SOL    HW233642   3.689   3.905   8.576
 7435SOL     OW33643   2.290   4.148   7.968
 7435SOL    HW133644   2.320   4.076   7.906
 7435SOL    HW233645   2.251   4.108   8.051
 7436SOL     OW33646   2.179   4.271   8.728
 7436SOL    HW133647   2.217   4.212   8.800
 7436SOL    HW233648   2.219   4.245   8.640
 7437SOL     OW33649   3.286   3.938   8.560
 7437SOL    HW133650   3.338   3.873   8.615
 7437SOL    HW233651   3.237   4.001   8.621
 7438SOL     OW33652   2.863   3.758   8.602
 7438SOL    HW133653   2.800   3.686   8.571
 7438SOL    HW233654   2.956   3.722   8.602
 7439SOL     OW33655   3.214   3.776   7.616
 7439SOL    HW133656   3.249   3.735   7.532
 7439SOL    HW233657   3.124   3.738   7.636
 7440SOL     OW33658   3.162   4.177   8.139
 7440SOL    HW133659   3.103   4.257   8.143
 7440SOL    HW233660   3.177   4.142   8.232
 7441SOL     OW33661   3.455   3.945   8.330
 7441SOL    HW133662   3.371   3.944   8.384
 7441SOL    HW233663   3.457   4.028   8.274
 7442SOL     OW33664   1.901   4.801   7.748
 7442SOL    HW133665   2.000   4.790   7.739
 7442SOL    HW233666   1.861   4.715   7.780
 7443SOL     OW33667   3.617   4.331   9.541
 7443SOL    HW133668   3.605   4.318   9.442
 7443SOL    HW233669   3.587   4.250   9.590
 7444SOL     OW33670   2.630   4.868  10.333
 7444SOL    HW133671   2.552   4.885  10.393
 7444SOL    HW233672   2.664   4.955  10.297
 7445SOL     OW33673   2.547   4.736   9.975
 7445SOL    HW133674   2.616   4.720  10.045
 7445SOL    HW233675   2.474   4.793  10.013
 7446SOL     OW33676   3.465   4.171  10.047
 7446SOL    HW133677   3.391   4.217   9.997
 7446SOL    HW233678   3.516   4.239  10.100
 7447SOL     OW33679   2.671   3.728   9.812
 7447SOL    HW133680   2.711   3.819   9.803
 7447SOL    HW233681   2.571   3.736   9.818
 7448SOL     OW33682   3.387   4.723   9.500
 7448SOL    HW133683   3.324   4.647   9.513
 7448SOL    HW233684   3.435   4.741   9.586
 7449SOL     OW33685   3.143   4.069  10.254
 7449SOL    HW133686   3.057   4.019  10.241
 7449SOL    HW233687   3.205   4.015  10.310
 7450SOL     OW33688   3.256   4.193  10.984
 7450SOL    HW133689   3.236   4.236  11.072
 7450SOL    HW233690   3.334   4.131  10.993
 7451SOL     OW33691   2.727   4.072   9.505
 7451SOL    HW133692   2.786   4.135   9.456
 7451SOL    HW233693   2.746   3.978   9.476
 7452SOL     OW33694   2.412   3.920  10.195
 7452SOL    HW133695   2.407   3.915  10.295
 7452SOL    HW233696   2.414   4.016  10.166
 7453SOL     OW33697   3.320   4.459  10.038
 7453SOL    HW133698   3.315   4.394  10.113
 7453SOL    HW233699   3.400   4.518  10.051
 7454SOL     OW33700   3.409   3.946  11.039
 7454SOL    HW133701   3.404   3.983  11.131
 7454SOL    HW233702   3.337   3.877  11.027
 7455SOL     OW33703   2.476   3.846   9.427
 7455SOL    HW133704   2.574   3.824   9.434
 7455SOL    HW233705   2.445   3.829   9.334
 7456SOL     OW33706   2.797   3.960   9.790
 7456SOL    HW133707   2.749   4.001   9.712
 7456SOL    HW233708   2.896   3.958   9.771
 7457SOL     OW33709   2.894   4.273   9.326
 7457SOL    HW133710   2.853   4.355   9.287
 7457SOL    HW233711   2.958   4.299   9.399
 7458SOL     OW33712   2.423   3.946  10.457
 7458SOL    HW133713   2.461   3.862  10.494
 7458SOL    HW233714   2.335   3.965  10.501
 7459SOL     OW33715   2.879   3.763  10.063
 7459SOL    HW133716   2.807   3.768   9.994
 7459SOL    HW233717   2.855   3.694  10.132
 7460SOL     OW33718   3.719   4.557   9.687
 7460SOL    HW133719   3.761   4.493   9.751
 7460SOL    HW233720   3.681   4.506   9.609
 7461SOL     OW33721   3.252   4.299   9.388
 7461SOL    HW133722   3.198   4.278   9.469
 7461SOL    HW233723   3.343   4.258   9.397
 7462SOL     OW33724   2.777   3.813  10.712
 7462SOL    HW133725   2.802   3.793  10.617
 7462SOL    HW233726   2.849   3.869  10.754
 7463SOL     OW33727   3.136   4.110  10.572
 7463SOL    HW133728   3.157   4.184  10.636
 7463SOL    HW233729   3.047   4.127  10.529
 7464SOL     OW33730   3.444   4.363   9.782
 7464SOL    HW133731   3.413   4.424   9.855
 7464SOL    HW233732   3.494   4.415   9.713
 7465SOL     OW33733   2.169   3.937  10.541
 7465SOL    HW133734   2.146   3.974  10.631
 7465SOL    HW233735   2.139   3.842  10.535
 7466SOL     OW33736   3.484   4.091   9.684
 7466SOL    HW133737   3.486   4.015   9.748
 7466SOL    HW233738   3.436   4.168   9.724
 7467SOL     OW33739   2.212   4.622  11.114
 7467SOL    HW133740   2.288   4.666  11.162
 7467SOL    HW233741   2.247   4.575  11.032
 7468SOL     OW33742   3.402   3.998   9.435
 7468SOL    HW133743   3.341   3.923   9.458
 7468SOL    HW233744   3.424   4.050   9.518
 7469SOL     OW33745   3.000   4.104  10.988
 7469SOL    HW133746   2.955   4.167  11.052
 7469SOL    HW233747   3.093   4.135  10.971
 7470SOL     OW33748   3.022   3.931  10.787
 7470SOL    HW133749   3.022   3.995  10.864
 7470SOL    HW233750   3.050   3.979  10.704
 7471SOL     OW33751   2.864   4.520  10.548
 7471SOL    HW133752   2.905   4.488  10.634
 7471SOL    HW233753   2.768   4.493  10.545
 7472SOL     OW33754   1.902   4.268  10.424
 7472SOL    HW133755   1.987   4.235  10.383
 7472SOL    HW233756   1.915   4.283  10.522
 7473SOL     OW33757   2.677   4.296   9.635
 7473SOL    HW133758   2.684   4.207   9.589
 7473SOL    HW233759   2.583   4.330   9.627
 7474SOL     OW33760   3.571   4.109  10.691
 7474SOL    HW133761   3.644   4.178  10.695
 7474SOL    HW233762   3.599   4.034  10.632
 7475SOL     OW33763   3.536   4.607  10.564
 7475SOL    HW133764   3.509   4.518  10.527
 7475SOL    HW233765   3.537   4.675  10.491
 7476SOL     OW33766   2.721   4.680  10.171
 7476SOL    HW133767   2.775   4.611  10.219
 7476SOL    HW233768   2.689   4.749  10.237
 7477SOL     OW33769   3.286   3.938  10.422
 7477SOL    HW133770   3.338   3.873  10.477
 7477SOL    HW233771   3.237   4.001  10.483
 7478SOL     OW33772   2.863   3.758  10.464
 7478SOL    HW133773   2.800   3.686  10.433
 7478SOL    HW233774   2.956   3.722  10.464
 7479SOL     OW33775   3.214   3.776   9.478
 7479SOL    HW133776   3.249   3.735   9.394
 7479SOL    HW233777   3.124   3.738   9.498
 7480SOL     OW33778   2.092   4.352  11.285
 7480SOL    HW133779   1.999   4.350  11.322
 7480SOL    HW233780   2.093   4.313  11.193
 7481SOL     OW33781   1.881   4.092  11.819
 7481SOL    HW133782   1.799   4.135  11.858
 7481SOL    HW233783   1.853   4.019  11.756
 7482SOL     OW33784   2.997   4.427  11.889
 7482SOL    HW133785   3.054   4.505  11.864
 7482SOL    HW233786   2.937   4.453  11.965
 7483SOL     OW33787   3.617   4.331  11.403
 7483SOL    HW133788   3.605   4.318  11.304
 7483SOL    HW233789   3.587   4.250  11.452
 7484SOL     OW33790   2.712   4.522  12.995
 7484SOL    HW133791   2.708   4.598  13.060
 7484SOL    HW233792   2.734   4.558  12.904
 7485SOL     OW33793   3.465   4.171  11.909
 7485SOL    HW133794   3.391   4.217  11.859
 7485SOL    HW233795   3.516   4.239  11.962
 7486SOL     OW33796   2.102   4.815  12.058
 7486SOL    HW133797   2.116   4.731  12.110
 7486SOL    HW233798   2.047   4.879  12.113
 7487SOL     OW33799   2.468   4.688  11.295
 7487SOL    HW133800   2.475   4.772  11.241
 7487SOL    HW233801   2.514   4.701  11.383
 7488SOL     OW33802   3.456   3.838  12.652
 7488SOL    HW133803   3.438   3.905  12.580
 7488SOL    HW233804   3.453   3.884  12.741
 7489SOL     OW33805   2.671   3.728  11.674
 7489SOL    HW133806   2.711   3.819  11.665
 7489SOL    HW233807   2.571   3.736  11.680
 7490SOL     OW33808   2.059   4.700  12.436
 7490SOL    HW133809   2.148   4.655  12.422
 7490SOL    HW233810   1.986   4.635  12.417
 7491SOL     OW33811   3.387   4.723  11.362
 7491SOL    HW133812   3.324   4.647  11.375
 7491SOL    HW233813   3.435   4.741  11.448
 7492SOL     OW33814   2.669   4.329  12.637
 7492SOL    HW133815   2.622   4.326  12.726
 7492SOL    HW233816   2.618   4.274  12.571
 7493SOL     OW33817   3.256   4.193  12.846
 7493SOL    HW133818   3.236   4.236  12.934
 7493SOL    HW233819   3.334   4.131  12.855
 7494SOL     OW33820   3.262   3.831  11.598
 7494SOL    HW133821   3.238   3.794  11.508
 7494SOL    HW233822   3.361   3.847  11.602
 7495SOL     OW33823   3.409   3.946  12.901
 7495SOL    HW133824   3.404   3.983  12.993
 7495SOL    HW233825   3.337   3.877  12.889
 7496SOL     OW33826   2.643   3.988  12.921
 7496SOL    HW133827   2.710   3.927  12.964
 7496SOL    HW233828   2.570   4.007  12.986
 7497SOL     OW33829   3.213   4.314  12.605
 7497SOL    HW133830   3.241   4.271  12.690
 7497SOL    HW233831   3.238   4.410  12.606
 7498SOL     OW33832   2.159   3.759  11.343
 7498SOL    HW133833   2.208   3.843  11.322
 7498SOL    HW233834   2.221   3.694  11.388
 7499SOL     OW33835   2.938   4.407  12.636
 7499SOL    HW133836   2.858   4.346  12.639
 7499SOL    HW233837   3.019   4.354  12.612
 7500SOL     OW33838   2.894   4.273  11.188
 7500SOL    HW133839   2.853   4.355  11.149
 7500SOL    HW233840   2.958   4.299  11.261
 7501SOL     OW33841   3.252   4.299  11.250
 7501SOL    HW133842   3.198   4.278  11.331
 7501SOL    HW233843   3.343   4.258  11.259
 7502SOL     OW33844   2.777   3.813  12.574
 7502SOL    HW133845   2.802   3.793  12.479
 7502SOL    HW233846   2.849   3.869  12.616
 7503SOL     OW33847   2.272   4.537  12.423
 7503SOL    HW133848   2.358   4.549  12.473
 7503SOL    HW233849   2.230   4.450  12.450
 7504SOL     OW33850   3.136   4.110  12.434
 7504SOL    HW133851   3.157   4.184  12.498
 7504SOL    HW233852   3.047   4.127  12.391
 7505SOL     OW33853   3.449   4.503  12.842
 7505SOL    HW133854   3.357   4.541  12.837
 7505SOL    HW233855   3.509   4.550  12.777
 7506SOL     OW33856   2.875   3.829  12.942
 7506SOL    HW133857   2.881   3.914  12.890
 7506SOL    HW233858   2.907   3.753  12.885
 7507SOL     OW33859   3.222   4.586  12.217
 7507SOL    HW133860   3.147   4.586  12.151
 7507SOL    HW233861   3.259   4.494  12.226
 7508SOL     OW33862   2.594   4.358  12.236
 7508SOL    HW133863   2.653   4.332  12.160
 7508SOL    HW233864   2.566   4.454  12.225
 7509SOL     OW33865   2.169   3.787  11.790
 7509SOL    HW133866   2.158   3.881  11.823
 7509SOL    HW233867   2.164   3.724  11.867
 7510SOL     OW33868   2.212   4.622  12.976
 7510SOL    HW133869   2.288   4.666  13.024
 7510SOL    HW233870   2.247   4.575  12.894
 7511SOL     OW33871   2.181   4.534  12.121
 7511SOL    HW133872   2.274   4.570  12.126
 7511SOL    HW233873   2.175   4.449  12.173
 7512SOL     OW33874   3.000   4.104  12.850
 7512SOL    HW133875   2.955   4.167  12.914
 7512SOL    HW233876   3.093   4.135  12.833
 7513SOL     OW33877   3.022   3.931  12.649
 7513SOL    HW133878   3.022   3.995  12.726
 7513SOL    HW233879   3.050   3.979  12.566
 7514SOL     OW33880   3.231   4.674  12.832
 7514SOL    HW133881   3.270   4.763  12.852
 7514SOL    HW233882   3.241   4.654  12.735
 7515SOL     OW33883   2.021   4.861  12.638
 7515SOL    HW133884   2.043   4.800  12.714
 7515SOL    HW233885   2.031   4.812  12.552
 7516SOL     OW33886   3.164   4.579  11.481
 7516SOL    HW133887   3.078   4.548  11.523
 7516SOL    HW233888   3.160   4.565  11.382
 7517SOL     OW33889   3.571   4.109  12.553
 7517SOL    HW133890   3.644   4.178  12.557
 7517SOL    HW233891   3.599   4.034  12.494
 7518SOL     OW33892   2.534   3.927  12.661
 7518SOL    HW133893   2.624   3.911  12.621
 7518SOL    HW233894   2.542   3.932  12.760
 7519SOL     OW33895   2.578   4.289  12.880
 7519SOL    HW133896   2.597   4.354  12.954
 7519SOL    HW233897   2.638   4.209  12.889
 7520SOL     OW33898   3.639   4.066  12.814
 7520SOL    HW133899   3.622   4.097  12.720
 7520SOL    HW233900   3.555   4.029  12.852
 7521SOL     OW33901   3.592   4.658  12.689
 7521SOL    HW133902   3.630   4.749  12.704
 7521SOL    HW233903   3.584   4.641  12.590
 7522SOL     OW33904   3.686   3.916  12.399
 7522SOL    HW133905   3.682   3.826  12.443
 7522SOL    HW233906   3.689   3.905  12.300
 7523SOL     OW33907   2.863   3.758  12.326
 7523SOL    HW133908   2.800   3.686  12.295
 7523SOL    HW233909   2.956   3.722  12.326
 7524SOL     OW33910   3.455   3.945  12.054
 7524SOL    HW133911   3.371   3.944  12.108
 7524SOL    HW233912   3.457   4.028  11.998
 7525SOL     OW33913   1.901   4.801  11.472
 7525SOL    HW133914   2.000   4.790  11.463
 7525SOL    HW233915   1.861   4.715  11.504
 7526SOL     OW33916   2.087   3.999  14.030
 7526SOL    HW133917   2.122   3.982  14.122
 7526SOL    HW233918   1.999   3.954  14.018
 7527SOL     OW33919   1.881   4.092  13.681
 7527SOL    HW133920   1.799   4.135  13.720
 7527SOL    HW233921   1.853   4.019  13.618
 7528SOL     OW33922   2.300   4.116  14.533
 7528SOL    HW133923   2.382   4.060  14.542
 7528SOL    HW233924   2.219   4.058  14.537
 7529SOL     OW33925   3.551   4.646  13.646
 7529SOL    HW133926   3.646   4.617  13.654
 7529SOL    HW233927   3.543   4.711  13.571
 7530SOL     OW33928   1.975   4.461  14.631
 7530SOL    HW133929   2.063   4.448  14.676
 7530SOL    HW233930   1.962   4.558  14.609
 7531SOL     OW33931   3.387   4.723  13.224
 7531SOL    HW133932   3.324   4.647  13.237
 7531SOL    HW233933   3.435   4.741  13.310
 7532SOL     OW33934   2.179   3.975  14.835
 7532SOL    HW133935   2.250   4.046  14.841
 7532SOL    HW233936   2.091   4.014  14.863
 7533SOL     OW33937   2.669   4.329  14.499
 7533SOL    HW133938   2.622   4.326  14.588
 7533SOL    HW233939   2.618   4.274  14.433
 7534SOL     OW33940   3.256   4.193  14.708
 7534SOL    HW133941   3.236   4.236  14.796
 7534SOL    HW233942   3.334   4.131  14.717
 7535SOL     OW33943   2.853   4.134  14.276
 7535SOL    HW133944   2.776   4.168  14.330
 7535SOL    HW233945   2.819   4.083  14.197
 7536SOL     OW33946   2.903   4.425  13.463
 7536SOL    HW133947   2.929   4.421  13.559
 7536SOL    HW233948   2.818   4.374  13.449
 7537SOL     OW33949   3.409   3.946  14.763
 7537SOL    HW133950   3.404   3.983  14.855
 7537SOL    HW233951   3.337   3.877  14.751
 7538SOL     OW33952   2.784   4.227  13.933
 7538SOL    HW133953   2.759   4.218  13.837
 7538SOL    HW233954   2.832   4.145  13.964
 7539SOL     OW33955   2.894   4.273  13.050
 7539SOL    HW133956   2.853   4.355  13.011
 7539SOL    HW233957   2.958   4.299  13.123
 7540SOL     OW33958   2.423   3.946  14.181
 7540SOL    HW133959   2.461   3.862  14.218
 7540SOL    HW233960   2.335   3.965  14.225
 7541SOL     OW33961   2.879   3.763  13.787
 7541SOL    HW133962   2.807   3.768  13.718
 7541SOL    HW233963   2.855   3.694  13.856
 7542SOL     OW33964   3.291   4.897  13.901
 7542SOL    HW133965   3.236   4.813  13.894
 7542SOL    HW233966   3.317   4.926  13.809
 7543SOL     OW33967   3.252   4.299  13.112
 7543SOL    HW133968   3.198   4.278  13.193
 7543SOL    HW233969   3.343   4.258  13.121
 7544SOL     OW33970   2.777   3.813  14.436
 7544SOL    HW133971   2.802   3.793  14.341
 7544SOL    HW233972   2.849   3.869  14.478
 7545SOL     OW33973   3.136   4.110  14.296
 7545SOL    HW133974   3.157   4.184  14.360
 7545SOL    HW233975   3.047   4.127  14.253
 7546SOL     OW33976   3.444   4.363  13.506
 7546SOL    HW133977   3.413   4.424  13.579
 7546SOL    HW233978   3.494   4.415  13.437
 7547SOL     OW33979   2.366   3.774  14.774
 7547SOL    HW133980   2.324   3.717  14.704
 7547SOL    HW233981   2.300   3.843  14.806
 7548SOL     OW33982   2.169   3.937  14.265
 7548SOL    HW133983   2.146   3.974  14.355
 7548SOL    HW233984   2.139   3.842  14.259
 7549SOL     OW33985   2.594   4.358  14.098
 7549SOL    HW133986   2.653   4.332  14.022
 7549SOL    HW233987   2.566   4.454  14.087
 7550SOL     OW33988   2.212   4.622  14.838
 7550SOL    HW133989   2.288   4.666  14.886
 7550SOL    HW233990   2.247   4.575  14.756
 7551SOL     OW33991   3.165   4.562  13.076
 7551SOL    HW133992   3.199   4.469  13.091
 7551SOL    HW233993   3.183   4.589  12.981
 7552SOL     OW33994   2.181   4.534  13.983
 7552SOL    HW133995   2.274   4.570  13.988
 7552SOL    HW233996   2.175   4.449  14.035
 7553SOL     OW33997   2.201   4.233  14.040
 7553SOL    HW133998   2.149   4.150  14.023
 7553SOL    HW233999   2.278   4.238  13.976
 7554SOL     OW34000   3.022   3.931  14.511
 7554SOL    HW134001   3.022   3.995  14.588
 7554SOL    HW234002   3.050   3.979  14.428
 7555SOL     OW34003   2.864   4.520  14.272
 7555SOL    HW134004   2.905   4.488  14.358
 7555SOL    HW234005   2.768   4.493  14.269
 7556SOL     OW34006   2.051   4.244  14.756
 7556SOL    HW134007   2.110   4.204  14.686
 7556SOL    HW234008   1.993   4.315  14.715
 7557SOL     OW34009   2.533   4.188  14.303
 7557SOL    HW134010   2.499   4.099  14.273
 7557SOL    HW234011   2.559   4.242  14.223
 7558SOL     OW34012   3.164   4.579  13.343
 7558SOL    HW134013   3.078   4.548  13.385
 7558SOL    HW234014   3.160   4.565  13.244
 7559SOL     OW34015   3.142   4.651  13.706
 7559SOL    HW134016   3.202   4.570  13.708
 7559SOL    HW234017   3.182   4.720  13.646
 7560SOL     OW34018   2.778   4.634  13.325
 7560SOL    HW134019   2.841   4.672  13.257
 7560SOL    HW234020   2.818   4.551  13.364
 7561SOL     OW34021   2.876   3.960  14.005
 7561SOL    HW134022   2.868   3.924  13.912
 7561SOL    HW234023   2.874   3.884  14.070
 7562SOL     OW34024   1.937   4.069  13.067
 7562SOL    HW134025   1.845   4.041  13.038
 7562SOL    HW234026   1.968   4.146  13.011
 7563SOL     OW34027   1.934   3.890  13.352
 7563SOL    HW134028   1.917   3.973  13.298
 7563SOL    HW234029   2.024   3.853  13.330
 7564SOL     OW34030   3.087   4.049  13.483
 7564SOL    HW134031   3.152   3.975  13.472
 7564SOL    HW234032   3.107   4.099  13.567
 7565SOL     OW34033   3.639   4.066  14.676
 7565SOL    HW134034   3.622   4.097  14.582
 7565SOL    HW234035   3.555   4.029  14.714
 7566SOL     OW34036   2.945   4.708  13.121
 7566SOL    HW134037   2.922   4.761  13.039
 7566SOL    HW234038   3.026   4.652  13.102
 7567SOL     OW34039   2.179   4.271  14.314
 7567SOL    HW134040   2.217   4.212  14.386
 7567SOL    HW234041   2.219   4.245  14.226
 7568SOL     OW34042   2.092   4.352  15.009
 7568SOL    HW134043   1.999   4.350  15.046
 7568SOL    HW234044   2.093   4.313  14.917
 7569SOL     OW34045   2.087   3.999  15.893
 7569SOL    HW134046   2.122   3.982  15.985
 7569SOL    HW234047   1.999   3.954  15.881
 7570SOL     OW34048   2.712   4.522  16.720
 7570SOL    HW134049   2.708   4.598  16.785
 7570SOL    HW234050   2.734   4.558  16.629
 7571SOL     OW34051   2.102   4.815  15.782
 7571SOL    HW134052   2.116   4.731  15.834
 7571SOL    HW234053   2.047   4.879  15.837
 7572SOL     OW34054   2.468   4.688  15.019
 7572SOL    HW134055   2.475   4.772  14.965
 7572SOL    HW234056   2.514   4.701  15.107
 7573SOL     OW34057   2.460   4.453  15.166
 7573SOL    HW134058   2.484   4.522  15.098
 7573SOL    HW234059   2.382   4.486  15.220
 7574SOL     OW34060   2.669   4.329  16.362
 7574SOL    HW134061   2.622   4.326  16.451
 7574SOL    HW234062   2.618   4.274  16.296
 7575SOL     OW34063   2.853   4.134  16.139
 7575SOL    HW134064   2.776   4.168  16.193
 7575SOL    HW234065   2.819   4.083  16.060
 7576SOL     OW34066   3.262   3.831  15.322
 7576SOL    HW134067   3.238   3.794  15.232
 7576SOL    HW234068   3.361   3.847  15.326
 7577SOL     OW34069   2.784   4.227  15.795
 7577SOL    HW134070   2.759   4.218  15.699
 7577SOL    HW234071   2.832   4.145  15.826
 7578SOL     OW34072   2.159   3.759  15.067
 7578SOL    HW134073   2.208   3.843  15.046
 7578SOL    HW234074   2.221   3.694  15.112
 7579SOL     OW34075   1.940   4.280  16.283
 7579SOL    HW134076   2.032   4.279  16.242
 7579SOL    HW234077   1.934   4.354  16.350
 7580SOL     OW34078   2.728   4.178  15.538
 7580SOL    HW134079   2.696   4.250  15.476
 7580SOL    HW234080   2.752   4.097  15.485
 7581SOL     OW34081   2.879   3.763  15.649
 7581SOL    HW134082   2.807   3.768  15.580
 7581SOL    HW234083   2.855   3.694  15.718
 7582SOL     OW34084   2.389   3.980  15.224
 7582SOL    HW134085   2.416   3.921  15.149
 7582SOL    HW234086   2.389   4.075  15.193
 7583SOL     OW34087   2.777   3.813  16.299
 7583SOL    HW134088   2.802   3.793  16.204
 7583SOL    HW234089   2.849   3.869  16.341
 7584SOL     OW34090   3.136   4.110  16.159
 7584SOL    HW134091   3.157   4.184  16.223
 7584SOL    HW234092   3.047   4.127  16.116
 7585SOL     OW34093   3.449   4.503  16.567
 7585SOL    HW134094   3.357   4.541  16.562
 7585SOL    HW234095   3.509   4.550  16.502
 7586SOL     OW34096   2.435   4.594  15.926
 7586SOL    HW134097   2.479   4.683  15.917
 7586SOL    HW234098   2.372   4.594  16.003
 7587SOL     OW34099   2.594   4.358  15.961
 7587SOL    HW134100   2.653   4.332  15.885
 7587SOL    HW234101   2.566   4.454  15.950
 7588SOL     OW34102   2.169   3.787  15.514
 7588SOL    HW134103   2.158   3.881  15.547
 7588SOL    HW234104   2.164   3.724  15.591
 7589SOL     OW34105   2.885   4.490  15.863
 7589SOL    HW134106   2.900   4.511  15.959
 7589SOL    HW234107   2.855   4.395  15.854
 7590SOL     OW34108   2.212   4.622  16.701
 7590SOL    HW134109   2.288   4.666  16.749
 7590SOL    HW234110   2.247   4.575  16.619
 7591SOL     OW34111   2.864   4.520  16.135
 7591SOL    HW134112   2.905   4.488  16.221
 7591SOL    HW234113   2.768   4.493  16.132
 7592SOL     OW34114   1.902   4.268  16.011
 7592SOL    HW134115   1.987   4.235  15.970
 7592SOL    HW234116   1.915   4.283  16.109
 7593SOL     OW34117   3.231   4.674  16.557
 7593SOL    HW134118   3.270   4.763  16.577
 7593SOL    HW234119   3.241   4.654  16.460
 7594SOL     OW34120   2.533   4.188  16.166
 7594SOL    HW134121   2.499   4.099  16.136
 7594SOL    HW234122   2.559   4.242  16.086
 7595SOL     OW34123   2.335   4.224  15.087
 7595SOL    HW134124   2.396   4.304  15.091
 7595SOL    HW234125   2.240   4.255  15.094
 7596SOL     OW34126   3.588   3.859  15.419
 7596SOL    HW134127   3.661   3.842  15.352
 7596SOL    HW234128   3.557   3.772  15.457
 7597SOL     OW34129   2.125   4.050  15.616
 7597SOL    HW134130   2.046   4.101  15.582
 7597SOL    HW234131   2.116   4.035  15.714
 7598SOL     OW34132   2.876   3.960  15.868
 7598SOL    HW134133   2.868   3.924  15.775
 7598SOL    HW234134   2.874   3.884  15.933
 7599SOL     OW34135   1.937   4.069  14.929
 7599SOL    HW134136   1.845   4.041  14.900
 7599SOL    HW234137   1.968   4.146  14.873
 7600SOL     OW34138   1.934   3.890  15.214
 7600SOL    HW134139   1.917   3.973  15.160
 7600SOL    HW234140   2.024   3.853  15.192
 7601SOL     OW34141   3.045   5.059  15.015
 7601SOL    HW134142   2.946   5.048  15.017
 7601SOL    HW234143   3.079   5.074  15.108
 7602SOL     OW34144   3.592   4.658  16.414
 7602SOL    HW134145   3.630   4.749  16.429
 7602SOL    HW234146   3.584   4.641  16.315
 7603SOL     OW34147   3.286   3.938  16.009
 7603SOL    HW134148   3.338   3.873  16.064
 7603SOL    HW234149   3.237   4.001  16.070
 7604SOL     OW34150   2.863   3.758  16.051
 7604SOL    HW134151   2.800   3.686  16.020
 7604SOL    HW234152   2.956   3.722  16.051
 7605SOL     OW34153   3.214   3.776  15.064
 7605SOL    HW134154   3.249   3.735  14.980
 7605SOL    HW234155   3.124   3.738  15.084
 7606SOL     OW34156   2.087   3.999  17.755
 7606SOL    HW134157   2.122   3.982  17.847
 7606SOL    HW234158   1.999   3.954  17.743
 7607SOL     OW34159   1.881   4.092  17.406
 7607SOL    HW134160   1.799   4.135  17.445
 7607SOL    HW234161   1.853   4.019  17.343
 7608SOL     OW34162   2.468   4.688  16.882
 7608SOL    HW134163   2.475   4.772  16.828
 7608SOL    HW234164   2.514   4.701  16.970
 7609SOL     OW34165   1.984   4.367  17.322
 7609SOL    HW134166   1.939   4.279  17.339
 7609SOL    HW234167   1.983   4.421  17.406
 7610SOL     OW34168   2.671   3.728  17.261
 7610SOL    HW134169   2.711   3.819  17.252
 7610SOL    HW234170   2.571   3.736  17.267
 7611SOL     OW34171   2.059   4.700  18.023
 7611SOL    HW134172   2.148   4.655  18.009
 7611SOL    HW234173   1.986   4.635  18.004
 7612SOL     OW34174   2.412   3.920  17.644
 7612SOL    HW134175   2.407   3.915  17.744
 7612SOL    HW234176   2.414   4.016  17.615
 7613SOL     OW34177   3.320   4.459  17.487
 7613SOL    HW134178   3.315   4.394  17.562
 7613SOL    HW234179   3.400   4.518  17.500
 7614SOL     OW34180   2.244   4.424  17.239
 7614SOL    HW134181   2.289   4.334  17.236
 7614SOL    HW234182   2.150   4.413  17.272
 7615SOL     OW34183   2.784   4.227  17.658
 7615SOL    HW134184   2.759   4.218  17.562
 7615SOL    HW234185   2.832   4.145  17.689
 7616SOL     OW34186   2.401   3.788  17.271
 7616SOL    HW134187   2.320   3.789  17.329
 7616SOL    HW234188   2.404   3.871  17.216
 7617SOL     OW34189   2.797   3.960  17.239
 7617SOL    HW134190   2.749   4.001  17.161
 7617SOL    HW234191   2.896   3.958  17.220
 7618SOL     OW34192   2.894   4.273  16.775
 7618SOL    HW134193   2.853   4.355  16.736
 7618SOL    HW234194   2.958   4.299  16.848
 7619SOL     OW34195   2.879   3.763  17.512
 7619SOL    HW134196   2.807   3.768  17.443
 7619SOL    HW234197   2.855   3.694  17.581
 7620SOL     OW34198   3.444   4.363  17.231
 7620SOL    HW134199   3.413   4.424  17.304
 7620SOL    HW234200   3.494   4.415  17.162
 7621SOL     OW34201   3.071   4.249  17.034
 7621SOL    HW134202   3.084   4.165  17.088
 7621SOL    HW234203   3.042   4.323  17.094
 7622SOL     OW34204   2.169   3.937  17.990
 7622SOL    HW134205   2.146   3.974  18.080
 7622SOL    HW234206   2.139   3.842  17.984
 7623SOL     OW34207   3.165   4.562  16.801
 7623SOL    HW134208   3.199   4.469  16.816
 7623SOL    HW234209   3.183   4.589  16.706
 7624SOL     OW34210   2.201   4.233  17.765
 7624SOL    HW134211   2.149   4.150  17.748
 7624SOL    HW234212   2.278   4.238  17.701
 7625SOL     OW34213   3.022   3.931  18.236
 7625SOL    HW134214   3.022   3.995  18.313
 7625SOL    HW234215   3.050   3.979  18.153
 7626SOL     OW34216   1.902   4.268  17.873
 7626SOL    HW134217   1.987   4.235  17.832
 7626SOL    HW234218   1.915   4.283  17.971
 7627SOL     OW34219   3.164   4.579  17.068
 7627SOL    HW134220   3.078   4.548  17.110
 7627SOL    HW234221   3.160   4.565  16.969
 7628SOL     OW34222   3.588   3.859  17.282
 7628SOL    HW134223   3.661   3.842  17.215
 7628SOL    HW234224   3.557   3.772  17.320
 7629SOL     OW34225   3.703   3.899  17.722
 7629SOL    HW134226   3.742   3.814  17.686
 7629SOL    HW234227   3.605   3.901  17.703
 7630SOL     OW34228   2.125   4.050  17.479
 7630SOL    HW134229   2.046   4.101  17.445
 7630SOL    HW234230   2.116   4.035  17.577
 7631SOL     OW34231   2.778   4.634  17.050
 7631SOL    HW134232   2.841   4.672  16.982
 7631SOL    HW234233   2.818   4.551  17.089
 7632SOL     OW34234   2.876   3.960  17.730
 7632SOL    HW134235   2.868   3.924  17.637
 7632SOL    HW234236   2.874   3.884  17.795
 7633SOL     OW34237   2.456   4.469  17.411
 7633SOL    HW134238   2.506   4.554  17.392
 7633SOL    HW234239   2.368   4.471  17.363
 7634SOL     OW34240   2.945   4.708  16.846
 7634SOL    HW134241   2.922   4.761  16.764
 7634SOL    HW234242   3.026   4.652  16.827
 7635SOL     OW34243   2.290   4.148  17.279
 7635SOL    HW134244   2.320   4.076  17.217
 7635SOL    HW234245   2.251   4.108  17.362
 7636SOL     OW34246   3.949   0.275   0.996
 7636SOL    HW134247   3.984   0.258   1.088
 7636SOL    HW234248   3.861   0.230   0.984
 7637SOL     OW34249   3.743   0.368   0.647
 7637SOL    HW134250   3.661   0.411   0.686
 7637SOL    HW234251   3.715   0.295   0.584
 7638SOL     OW34252   4.492   1.144   1.023
 7638SOL    HW134253   4.414   1.161   1.083
 7638SOL    HW234254   4.526   1.231   0.987
 7639SOL     OW34255   4.574   0.798   1.823
 7639SOL    HW134256   4.570   0.874   1.888
 7639SOL    HW234257   4.596   0.834   1.732
 7640SOL     OW34258   4.409   1.012   0.665
 7640SOL    HW134259   4.478   0.996   0.735
 7640SOL    HW234260   4.336   1.069   0.703
 7641SOL     OW34261   4.410   1.161   1.803
 7641SOL    HW134262   4.470   1.240   1.817
 7641SOL    HW234263   4.324   1.192   1.762
 7642SOL     OW34264   4.059   1.435   1.061
 7642SOL    HW134265   3.981   1.404   1.008
 7642SOL    HW234266   4.117   1.493   1.004
 7643SOL     OW34267   4.162   0.392   1.499
 7643SOL    HW134268   4.244   0.336   1.508
 7643SOL    HW234269   4.081   0.334   1.503
 7644SOL     OW34270   3.955   1.713   0.483
 7644SOL    HW134271   3.989   1.790   0.537
 7644SOL    HW234272   3.999   1.713   0.393
 7645SOL     OW34273   4.344   1.786   1.439
 7645SOL    HW134274   4.252   1.769   1.474
 7645SOL    HW234275   4.372   1.878   1.465
 7646SOL     OW34276   3.837   0.737   1.597
 7646SOL    HW134277   3.925   0.724   1.642
 7646SOL    HW234278   3.824   0.834   1.575
 7647SOL     OW34279   4.337   1.365   0.726
 7647SOL    HW134280   4.288   1.278   0.735
 7647SOL    HW234281   4.314   1.408   0.639
 7648SOL     OW34282   4.533   0.004   0.502
 7648SOL    HW134283   4.573   0.095   0.493
 7648SOL    HW234284   4.433   0.012   0.508
 7649SOL     OW34285   4.041   0.251   1.801
 7649SOL    HW134286   4.112   0.322   1.807
 7649SOL    HW234287   3.953   0.290   1.829
 7650SOL     OW34288   4.322   0.729   0.270
 7650SOL    HW134289   4.346   0.798   0.202
 7650SOL    HW234290   4.244   0.762   0.324
 7651SOL     OW34291   4.531   0.605   1.465
 7651SOL    HW134292   4.484   0.602   1.554
 7651SOL    HW234293   4.480   0.550   1.399
 7652SOL     OW34294   4.697   0.890   1.572
 7652SOL    HW134295   4.743   0.806   1.543
 7652SOL    HW234296   4.641   0.924   1.497
 7653SOL     OW34297   4.715   0.410   1.242
 7653SOL    HW134298   4.638   0.444   1.296
 7653SOL    HW234299   4.681   0.359   1.163
 7654SOL     OW34300   4.274   0.196   0.885
 7654SOL    HW134301   4.269   0.191   0.985
 7654SOL    HW234302   4.276   0.292   0.856
 7655SOL     OW34303   4.185   1.266   1.727
 7655SOL    HW134304   4.135   1.267   1.641
 7655SOL    HW234305   4.122   1.248   1.803
 7656SOL     OW34306   3.926   0.285   1.498
 7656SOL    HW134307   3.846   0.345   1.485
 7656SOL    HW234308   3.916   0.236   1.584
 7657SOL     OW34309   4.527   1.402   0.924
 7657SOL    HW134310   4.617   1.416   0.882
 7657SOL    HW234311   4.456   1.404   0.853
 7658SOL     OW34312   4.646   0.503   0.899
 7658SOL    HW134313   4.621   0.494   0.803
 7658SOL    HW234314   4.694   0.421   0.930
 7659SOL     OW34315   4.659   0.236   0.480
 7659SOL    HW134316   4.611   0.277   0.402
 7659SOL    HW234317   4.758   0.234   0.461
 7660SOL     OW34318   4.183   1.152   0.741
 7660SOL    HW134319   4.112   1.125   0.806
 7660SOL    HW234320   4.157   1.124   0.648
 7661SOL     OW34321   4.590   0.454   0.642
 7661SOL    HW134322   4.558   0.526   0.580
 7661SOL    HW234323   4.614   0.373   0.589
 7662SOL     OW34324   4.741   0.039   0.753
 7662SOL    HW134325   4.669   0.044   0.684
 7662SOL    HW234326   4.717  -0.030   0.822
 7663SOL     OW34327   4.704   1.116   1.719
 7663SOL    HW134328   4.605   1.122   1.729
 7663SOL    HW234329   4.727   1.036   1.663
 7664SOL     OW34330   4.429   1.050   0.368
 7664SOL    HW134331   4.415   1.057   0.467
 7664SOL    HW234332   4.513   0.999   0.350
 7665SOL     OW34333   4.091   1.100   0.501
 7665SOL    HW134334   4.084   1.183   0.445
 7665SOL    HW234335   4.095   1.020   0.441
 7666SOL     OW34336   4.290   0.537   0.865
 7666SOL    HW134337   4.302   0.603   0.791
 7666SOL    HW234338   4.336   0.571   0.948
 7667SOL     OW34339   4.078   1.510   1.329
 7667SOL    HW134340   4.057   1.466   1.242
 7667SOL    HW234341   4.175   1.536   1.332
 7668SOL     OW34342   4.747   0.766   0.966
 7668SOL    HW134343   4.762   0.787   1.062
 7668SOL    HW234344   4.717   0.671   0.957
 7669SOL     OW34345   4.704   1.573   1.700
 7669SOL    HW134346   4.684   1.617   1.612
 7669SOL    HW234347   4.743   1.482   1.684
 7670SOL     OW34348   4.074   0.898   1.804
 7670SOL    HW134349   4.150   0.942   1.852
 7670SOL    HW234350   4.109   0.851   1.722
 7671SOL     OW34351   4.228   1.568   0.910
 7671SOL    HW134352   4.294   1.642   0.919
 7671SOL    HW234353   4.272   1.489   0.868
 7672SOL     OW34354   3.913   0.520   1.722
 7672SOL    HW134355   3.972   0.480   1.652
 7672SOL    HW234356   3.855   0.591   1.681
 7673SOL     OW34357   3.976   1.564   1.744
 7673SOL    HW134358   3.946   1.621   1.820
 7673SOL    HW234359   3.969   1.467   1.770
 7674SOL     OW34360   4.654   1.678   1.465
 7674SOL    HW134361   4.630   1.660   1.370
 7674SOL    HW234362   4.684   1.772   1.475
 7675SOL     OW34363   3.883   1.137   1.466
 7675SOL    HW134364   3.905   1.076   1.542
 7675SOL    HW234365   3.893   1.088   1.380
 7676SOL     OW34366   4.412   1.662   1.716
 7676SOL    HW134367   4.356   1.743   1.725
 7676SOL    HW234368   4.464   1.666   1.630
 7677SOL     OW34369   3.854   1.794   1.851
 7677SOL    HW134370   3.813   1.720   1.904
 7677SOL    HW234371   3.918   1.845   1.909
 7678SOL     OW34372   5.004   0.927   0.672
 7678SOL    HW134373   5.064   0.846   0.674
 7678SOL    HW234374   5.044   0.996   0.612
 7679SOL     OW34375   3.987   0.326   0.720
 7679SOL    HW134376   3.908   0.377   0.686
 7679SOL    HW234377   3.978   0.311   0.818
 7680SOL     OW34378   4.640   0.910   0.291
 7680SOL    HW134379   4.703   0.948   0.223
 7680SOL    HW234380   4.680   0.827   0.330
 7681SOL     OW34381   4.096   1.288   1.490
 7681SOL    HW134382   4.083   1.381   1.456
 7681SOL    HW234383   4.012   1.236   1.477
 7682SOL     OW34384   4.763   1.098   0.696
 7682SOL    HW134385   4.693   1.051   0.750
 7682SOL    HW234386   4.822   1.030   0.653
 7683SOL     OW34387   4.738   0.236   0.971
 7683SOL    HW134388   4.730   0.200   0.878
 7683SOL    HW234389   4.736   0.160   1.036
 7684SOL     OW34390   3.979   1.348   0.290
 7684SOL    HW134391   3.883   1.349   0.263
 7684SOL    HW234392   3.991   1.401   0.374
 7685SOL     OW34393   3.829   1.013   1.726
 7685SOL    HW134394   3.752   0.980   1.780
 7685SOL    HW234395   3.914   0.983   1.768
 7686SOL     OW34396   4.396   0.203   1.489
 7686SOL    HW134397   4.486   0.187   1.449
 7686SOL    HW234398   4.404   0.208   1.588
 7687SOL     OW34399   4.440   0.565   1.708
 7687SOL    HW134400   4.459   0.630   1.782
 7687SOL    HW234401   4.500   0.485   1.717
 7688SOL     OW34402   4.114   1.741   1.560
 7688SOL    HW134403   4.023   1.782   1.558
 7688SOL    HW234404   4.107   1.647   1.592
 7689SOL     OW34405   4.318   0.745   0.652
 7689SOL    HW134406   4.368   0.830   0.633
 7689SOL    HW234407   4.230   0.747   0.604
 7690SOL     OW34408   4.385   1.790   0.953
 7690SOL    HW134409   4.339   1.878   0.940
 7690SOL    HW234410   4.484   1.802   0.946
 7691SOL     OW34411   3.945   1.314   1.844
 7691SOL    HW134412   3.880   1.241   1.823
 7691SOL    HW234413   3.949   1.328   1.942
 7692SOL     OW34414   4.396   1.391   1.624
 7692SOL    HW134415   4.318   1.341   1.662
 7692SOL    HW234416   4.393   1.486   1.655
 7693SOL     OW34417   4.494   1.330   0.301
 7693SOL    HW134418   4.448   1.243   0.318
 7693SOL    HW234419   4.585   1.327   0.342
 7694SOL     OW34420   3.954   0.628   1.975
 7694SOL    HW134421   3.861   0.626   2.012
 7694SOL    HW234422   3.955   0.589   1.883
 7695SOL     OW34423   3.949   0.275   2.858
 7695SOL    HW134424   3.984   0.258   2.950
 7695SOL    HW234425   3.861   0.230   2.846
 7696SOL     OW34426   3.743   0.368   2.509
 7696SOL    HW134427   3.661   0.411   2.548
 7696SOL    HW234428   3.715   0.295   2.446
 7697SOL     OW34429   4.293   1.275   3.027
 7697SOL    HW134430   4.200   1.268   2.990
 7697SOL    HW234431   4.304   1.364   3.071
 7698SOL     OW34432   4.492   1.144   2.885
 7698SOL    HW134433   4.414   1.161   2.945
 7698SOL    HW234434   4.526   1.231   2.849
 7699SOL     OW34435   4.574   0.798   3.685
 7699SOL    HW134436   4.570   0.874   3.750
 7699SOL    HW234437   4.596   0.834   3.594
 7700SOL     OW34438   4.409   1.012   2.527
 7700SOL    HW134439   4.478   0.996   2.597
 7700SOL    HW234440   4.336   1.069   2.565
 7701SOL     OW34441   4.410   1.161   3.665
 7701SOL    HW134442   4.470   1.240   3.679
 7701SOL    HW234443   4.324   1.192   3.624
 7702SOL     OW34444   4.059   1.435   2.923
 7702SOL    HW134445   3.981   1.404   2.870
 7702SOL    HW234446   4.117   1.493   2.866
 7703SOL     OW34447   4.162   0.392   3.361
 7703SOL    HW134448   4.244   0.336   3.370
 7703SOL    HW234449   4.081   0.334   3.365
 7704SOL     OW34450   3.955   1.713   2.345
 7704SOL    HW134451   3.989   1.790   2.399
 7704SOL    HW234452   3.999   1.713   2.255
 7705SOL     OW34453   3.954   1.434   2.400
 7705SOL    HW134454   3.928   1.530   2.400
 7705SOL    HW234455   3.883   1.380   2.445
 7706SOL     OW34456   3.964   1.091   2.748
 7706SOL    HW134457   3.978   1.007   2.800
 7706SOL    HW234458   3.909   1.155   2.803
 7707SOL     OW34459   4.344   1.786   3.301
 7707SOL    HW134460   4.252   1.769   3.336
 7707SOL    HW234461   4.372   1.878   3.327
 7708SOL     OW34462   4.330   0.964   1.985
 7708SOL    HW134463   4.337   1.048   1.931
 7708SOL    HW234464   4.376   0.977   2.073
 7709SOL     OW34465   3.846   0.643   2.425
 7709SOL    HW134466   3.801   0.555   2.442
 7709SOL    HW234467   3.845   0.697   2.509
 7710SOL     OW34468   3.751   1.596   1.979
 7710SOL    HW134469   3.732   1.500   2.000
 7710SOL    HW234470   3.718   1.654   2.054
 7711SOL     OW34471   3.837   0.737   3.459
 7711SOL    HW134472   3.925   0.724   3.504
 7711SOL    HW234473   3.824   0.834   3.437
 7712SOL     OW34474   4.337   1.365   2.588
 7712SOL    HW134475   4.288   1.278   2.597
 7712SOL    HW234476   4.314   1.408   2.501
 7713SOL     OW34477   4.533   0.004   2.364
 7713SOL    HW134478   4.573   0.095   2.355
 7713SOL    HW234479   4.433   0.012   2.370
 7714SOL     OW34480   3.921   0.976   3.126
 7714SOL    HW134481   4.010   0.931   3.112
 7714SOL    HW234482   3.848   0.911   3.107
 7715SOL     OW34483   4.041   0.251   3.663
 7715SOL    HW134484   4.112   0.322   3.669
 7715SOL    HW234485   3.953   0.290   3.691
 7716SOL     OW34486   4.322   0.729   2.132
 7716SOL    HW134487   4.346   0.798   2.064
 7716SOL    HW234488   4.244   0.762   2.186
 7717SOL     OW34489   4.531   0.605   3.327
 7717SOL    HW134490   4.484   0.602   3.416
 7717SOL    HW234491   4.480   0.550   3.261
 7718SOL     OW34492   4.697   0.890   3.434
 7718SOL    HW134493   4.743   0.806   3.405
 7718SOL    HW234494   4.641   0.924   3.359
 7719SOL     OW34495   4.715   0.410   3.104
 7719SOL    HW134496   4.638   0.444   3.158
 7719SOL    HW234497   4.681   0.359   3.025
 7720SOL     OW34498   3.854   1.821   3.433
 7720SOL    HW134499   3.844   1.806   3.532
 7720SOL    HW234500   3.768   1.857   3.397
 7721SOL     OW34501   4.589   0.348   2.057
 7721SOL    HW134502   4.648   0.411   2.008
 7721SOL    HW234503   4.608   0.254   2.028
 7722SOL     OW34504   4.274   0.196   2.747
 7722SOL    HW134505   4.269   0.191   2.847
 7722SOL    HW234506   4.276   0.292   2.718
 7723SOL     OW34507   4.732   1.456   2.339
 7723SOL    HW134508   4.686   1.528   2.287
 7723SOL    HW234509   4.728   1.476   2.437
 7724SOL     OW34510   4.075   1.801   2.715
 7724SOL    HW134511   4.125   1.715   2.721
 7724SOL    HW234512   4.140   1.878   2.712
 7725SOL     OW34513   4.045   0.943   2.104
 7725SOL    HW134514   4.127   0.982   2.062
 7725SOL    HW234515   4.018   0.861   2.055
 7726SOL     OW34516   4.185   1.266   3.589
 7726SOL    HW134517   4.135   1.267   3.503
 7726SOL    HW234518   4.122   1.248   3.665
 7727SOL     OW34519   3.926   0.285   3.360
 7727SOL    HW134520   3.846   0.345   3.347
 7727SOL    HW234521   3.916   0.236   3.446
 7728SOL     OW34522   4.188   1.743   2.185
 7728SOL    HW134523   4.221   1.782   2.271
 7728SOL    HW234524   4.264   1.736   2.120
 7729SOL     OW34525   3.973   1.785   3.103
 7729SOL    HW134526   4.030   1.720   3.153
 7729SOL    HW234527   3.957   1.752   3.010
 7730SOL     OW34528   4.106   0.700   2.342
 7730SOL    HW134529   4.151   0.610   2.339
 7730SOL    HW234530   4.012   0.689   2.375
 7731SOL     OW34531   4.338   0.122   1.979
 7731SOL    HW134532   4.436   0.100   1.986
 7731SOL    HW234533   4.307   0.105   1.886
 7732SOL     OW34534   4.505   0.264   3.611
 7732SOL    HW134535   4.572   0.203   3.654
 7732SOL    HW234536   4.432   0.283   3.676
 7733SOL     OW34537   4.612   1.514   3.057
 7733SOL    HW134538   4.589   1.489   2.963
 7733SOL    HW234539   4.673   1.445   3.096
 7734SOL     OW34540   4.527   1.402   2.786
 7734SOL    HW134541   4.617   1.416   2.744
 7734SOL    HW234542   4.456   1.404   2.715
 7735SOL     OW34543   4.646   0.503   2.761
 7735SOL    HW134544   4.621   0.494   2.665
 7735SOL    HW234545   4.694   0.421   2.792
 7736SOL     OW34546   4.263   0.064   2.374
 7736SOL    HW134547   4.182   0.065   2.432
 7736SOL    HW234548   4.266   0.147   2.319
 7737SOL     OW34549   4.021   0.035   2.033
 7737SOL    HW134550   4.070   0.119   2.012
 7737SOL    HW234551   4.083  -0.030   2.078
 7738SOL     OW34552   4.659   0.236   2.342
 7738SOL    HW134553   4.611   0.277   2.264
 7738SOL    HW234554   4.758   0.234   2.323
 7739SOL     OW34555   4.951   1.570   2.655
 7739SOL    HW134556   4.972   1.644   2.590
 7739SOL    HW234557   5.019   1.570   2.728
 7740SOL     OW34558   4.183   1.152   2.603
 7740SOL    HW134559   4.112   1.125   2.668
 7740SOL    HW234560   4.157   1.124   2.510
 7741SOL     OW34561   4.756   0.549   1.878
 7741SOL    HW134562   4.715   0.631   1.839
 7741SOL    HW234563   4.820   0.575   1.951
 7742SOL     OW34564   3.802   0.556   3.248
 7742SOL    HW134565   3.894   0.555   3.207
 7742SOL    HW234566   3.796   0.630   3.315
 7743SOL     OW34567   4.285   0.222   3.009
 7743SOL    HW134568   4.323   0.138   3.046
 7743SOL    HW234569   4.197   0.241   3.053
 7744SOL     OW34570   4.590   0.454   2.504
 7744SOL    HW134571   4.558   0.526   2.442
 7744SOL    HW234572   4.614   0.373   2.451
 7745SOL     OW34573   4.741   0.039   2.615
 7745SOL    HW134574   4.669   0.044   2.546
 7745SOL    HW234575   4.717  -0.030   2.684
 7746SOL     OW34576   4.212   1.385   2.036
 7746SOL    HW134577   4.125   1.370   2.083
 7746SOL    HW234578   4.195   1.411   1.941
 7747SOL     OW34579   4.251   0.256   2.190
 7747SOL    HW134580   4.278   0.197   2.115
 7747SOL    HW234581   4.251   0.351   2.159
 7748SOL     OW34582   4.704   1.116   3.581
 7748SOL    HW134583   4.605   1.122   3.591
 7748SOL    HW234584   4.727   1.036   3.525
 7749SOL     OW34585   4.429   1.050   2.230
 7749SOL    HW134586   4.415   1.057   2.329
 7749SOL    HW234587   4.513   0.999   2.212
 7750SOL     OW34588   4.134   0.813   3.113
 7750SOL    HW134589   4.220   0.825   3.163
 7750SOL    HW234590   4.092   0.726   3.140
 7751SOL     OW34591   3.788   1.564   3.193
 7751SOL    HW134592   3.742   1.646   3.159
 7751SOL    HW234593   3.886   1.583   3.202
 7752SOL     OW34594   4.091   1.100   2.363
 7752SOL    HW134595   4.084   1.183   2.307
 7752SOL    HW234596   4.095   1.020   2.303
 7753SOL     OW34597   4.290   0.537   2.727
 7753SOL    HW134598   4.302   0.603   2.653
 7753SOL    HW234599   4.336   0.571   2.810
 7754SOL     OW34600   4.078   1.510   3.191
 7754SOL    HW134601   4.057   1.466   3.104
 7754SOL    HW234602   4.175   1.536   3.194
 7755SOL     OW34603   4.126   0.751   3.460
 7755SOL    HW134604   4.194   0.806   3.413
 7755SOL    HW234605   4.166   0.663   3.487
 7756SOL     OW34606   4.737   0.105   3.632
 7756SOL    HW134607   4.743   0.190   3.580
 7756SOL    HW234608   4.769   0.029   3.575
 7757SOL     OW34609   4.228   0.050   3.602
 7757SOL    HW134610   4.186  -0.007   3.532
 7757SOL    HW234611   4.162   0.119   3.634
 7758SOL     OW34612   4.297   0.870   2.891
 7758SOL    HW134613   4.341   0.959   2.882
 7758SOL    HW234614   4.234   0.870   2.968
 7759SOL     OW34615   4.933   0.525   2.137
 7759SOL    HW134616   4.946   0.441   2.191
 7759SOL    HW234617   4.904   0.599   2.197
 7760SOL     OW34618   4.031   0.213   3.093
 7760SOL    HW134619   4.008   0.250   3.183
 7760SOL    HW234620   4.001   0.118   3.087
 7761SOL     OW34621   3.761   1.310   3.144
 7761SOL    HW134622   3.814   1.261   3.212
 7761SOL    HW234623   3.783   1.408   3.149
 7762SOL     OW34624   4.456   0.634   2.926
 7762SOL    HW134625   4.515   0.608   2.850
 7762SOL    HW234626   4.428   0.730   2.915
 7763SOL     OW34627   4.031   0.063   2.480
 7763SOL    HW134628   4.020   0.157   2.513
 7763SOL    HW234629   4.026   0.000   2.557
 7764SOL     OW34630   4.747   0.766   2.828
 7764SOL    HW134631   4.762   0.787   2.924
 7764SOL    HW234632   4.717   0.671   2.819
 7765SOL     OW34633   4.704   1.573   3.562
 7765SOL    HW134634   4.684   1.617   3.474
 7765SOL    HW234635   4.743   1.482   3.546
 7766SOL     OW34636   4.074   0.898   3.666
 7766SOL    HW134637   4.150   0.942   3.714
 7766SOL    HW234638   4.109   0.851   3.584
 7767SOL     OW34639   4.043   0.810   2.811
 7767SOL    HW134640   4.136   0.846   2.816
 7767SOL    HW234641   4.037   0.725   2.863
 7768SOL     OW34642   4.063   0.509   2.868
 7768SOL    HW134643   4.011   0.426   2.851
 7768SOL    HW234644   4.140   0.514   2.804
 7769SOL     OW34645   3.732   1.326   2.062
 7769SOL    HW134646   3.639   1.347   2.031
 7769SOL    HW234647   3.742   1.227   2.075
 7770SOL     OW34648   3.812   1.801   2.789
 7770SOL    HW134649   3.770   1.715   2.762
 7770SOL    HW234650   3.906   1.804   2.755
 7771SOL     OW34651   4.228   1.568   2.772
 7771SOL    HW134652   4.294   1.642   2.781
 7771SOL    HW234653   4.272   1.489   2.730
 7772SOL     OW34654   4.726   0.796   3.100
 7772SOL    HW134655   4.767   0.764   3.186
 7772SOL    HW234656   4.630   0.769   3.097
 7773SOL     OW34657   3.764   0.544   2.976
 7773SOL    HW134658   3.849   0.511   2.935
 7773SOL    HW234659   3.777   0.559   3.074
 7774SOL     OW34660   3.913   0.520   3.584
 7774SOL    HW134661   3.972   0.480   3.514
 7774SOL    HW234662   3.855   0.591   3.543
 7775SOL     OW34663   4.539   0.572   2.187
 7775SOL    HW134664   4.546   0.483   2.141
 7775SOL    HW234665   4.445   0.606   2.179
 7776SOL     OW34666   3.976   1.564   3.606
 7776SOL    HW134667   3.946   1.621   3.682
 7776SOL    HW234668   3.969   1.467   3.632
 7777SOL     OW34669   4.395   0.464   3.131
 7777SOL    HW134670   4.361   0.375   3.101
 7777SOL    HW234671   4.421   0.518   3.051
 7778SOL     OW34672   4.654   1.678   3.327
 7778SOL    HW134673   4.630   1.660   3.232
 7778SOL    HW234674   4.684   1.772   3.337
 7779SOL     OW34675   4.197   0.500   2.053
 7779SOL    HW134676   4.258   0.580   2.057
 7779SOL    HW234677   4.102   0.531   2.060
 7780SOL     OW34678   3.807   1.258   2.884
 7780SOL    HW134679   3.802   1.257   2.984
 7780SOL    HW234680   3.724   1.217   2.846
 7781SOL     OW34681   4.412   1.662   3.578
 7781SOL    HW134682   4.356   1.743   3.587
 7781SOL    HW234683   4.464   1.666   3.492
 7782SOL     OW34684   3.854   1.794   3.713
 7782SOL    HW134685   3.813   1.720   3.766
 7782SOL    HW234686   3.918   1.845   3.771
 7783SOL     OW34687   5.004   0.927   2.534
 7783SOL    HW134688   5.064   0.846   2.536
 7783SOL    HW234689   5.044   0.996   2.474
 7784SOL     OW34690   4.554   1.273   3.284
 7784SOL    HW134691   4.549   1.306   3.379
 7784SOL    HW234692   4.468   1.292   3.238
 7785SOL     OW34693   4.396   1.616   2.016
 7785SOL    HW134694   4.405   1.626   1.917
 7785SOL    HW234695   4.356   1.527   2.037
 7786SOL     OW34696   3.987   0.326   2.582
 7786SOL    HW134697   3.908   0.377   2.548
 7786SOL    HW234698   3.978   0.311   2.680
 7787SOL     OW34699   4.546   1.002   3.234
 7787SOL    HW134700   4.586   1.001   3.142
 7787SOL    HW234701   4.556   1.094   3.274
 7788SOL     OW34702   4.640   0.910   2.153
 7788SOL    HW134703   4.703   0.948   2.085
 7788SOL    HW234704   4.680   0.827   2.192
 7789SOL     OW34705   4.096   1.288   3.352
 7789SOL    HW134706   4.083   1.381   3.318
 7789SOL    HW234707   4.012   1.236   3.339
 7790SOL     OW34708   4.763   1.098   2.558
 7790SOL    HW134709   4.693   1.051   2.612
 7790SOL    HW234710   4.822   1.030   2.515
 7791SOL     OW34711   4.738   0.236   2.833
 7791SOL    HW134712   4.730   0.200   2.740
 7791SOL    HW234713   4.736   0.160   2.898
 7792SOL     OW34714   4.314   1.487   2.353
 7792SOL    HW134715   4.356   1.429   2.283
 7792SOL    HW234716   4.270   1.566   2.309
 7793SOL     OW34717   3.979   1.348   2.152
 7793SOL    HW134718   3.883   1.349   2.125
 7793SOL    HW234719   3.991   1.401   2.236
 7794SOL     OW34720   3.829   1.013   3.588
 7794SOL    HW134721   3.752   0.980   3.642
 7794SOL    HW234722   3.914   0.983   3.630
 7795SOL     OW34723   3.799   0.345   1.895
 7795SOL    HW134724   3.707   0.317   1.866
 7795SOL    HW234725   3.830   0.422   1.839
 7796SOL     OW34726   3.796   0.166   2.180
 7796SOL    HW134727   3.779   0.249   2.126
 7796SOL    HW234728   3.886   0.129   2.158
 7797SOL     OW34729   4.337   0.842   3.293
 7797SOL    HW134730   4.393   0.923   3.276
 7797SOL    HW234731   4.396   0.762   3.296
 7798SOL     OW34732   4.440   0.565   3.570
 7798SOL    HW134733   4.459   0.630   3.644
 7798SOL    HW234734   4.500   0.485   3.579
 7799SOL     OW34735   4.114   1.741   3.422
 7799SOL    HW134736   4.023   1.782   3.420
 7799SOL    HW234737   4.107   1.647   3.454
 7800SOL     OW34738   4.949   0.325   2.311
 7800SOL    HW134739   5.014   0.251   2.300
 7800SOL    HW234740   4.969   0.375   2.395
 7801SOL     OW34741   4.318   0.745   2.514
 7801SOL    HW134742   4.368   0.830   2.495
 7801SOL    HW234743   4.230   0.747   2.466
 7802SOL     OW34744   4.583   1.374   1.878
 7802SOL    HW134745   4.537   1.389   1.966
 7802SOL    HW234746   4.627   1.459   1.848
 7803SOL     OW34747   4.385   1.790   2.815
 7803SOL    HW134748   4.339   1.878   2.802
 7803SOL    HW234749   4.484   1.802   2.808
 7804SOL     OW34750   4.583   0.956   2.723
 7804SOL    HW134751   4.637   0.887   2.771
 7804SOL    HW234752   4.551   1.025   2.789
 7805SOL     OW34753   3.945   1.314   3.706
 7805SOL    HW134754   3.880   1.241   3.685
 7805SOL    HW234755   3.949   1.328   3.804
 7806SOL     OW34756   3.803   1.240   2.515
 7806SOL    HW134757   3.802   1.193   2.603
 7806SOL    HW234758   3.885   1.212   2.464
 7807SOL     OW34759   4.396   1.391   3.486
 7807SOL    HW134760   4.318   1.341   3.524
 7807SOL    HW234761   4.393   1.486   3.517
 7808SOL     OW34762   4.152   0.424   2.382
 7808SOL    HW134763   4.182   0.352   2.320
 7808SOL    HW234764   4.113   0.384   2.465
 7809SOL     OW34765   4.041   0.547   3.142
 7809SOL    HW134766   4.079   0.488   3.214
 7809SOL    HW234767   4.081   0.521   3.054
 7810SOL     OW34768   4.536   1.586   2.549
 7810SOL    HW134769   4.568   1.596   2.455
 7810SOL    HW234770   4.457   1.524   2.551
 7811SOL     OW34771   4.725   0.034   3.016
 7811SOL    HW134772   4.662  -0.038   2.985
 7811SOL    HW234773   4.818  -0.002   3.016
 7812SOL     OW34774   4.494   1.330   2.163
 7812SOL    HW134775   4.448   1.243   2.180
 7812SOL    HW234776   4.585   1.327   2.204
 7813SOL     OW34777   4.342   1.567   3.146
 7813SOL    HW134778   4.337   1.649   3.203
 7813SOL    HW234779   4.431   1.564   3.101
 7814SOL     OW34780   3.763   1.077   2.162
 7814SOL    HW134781   3.862   1.066   2.153
 7814SOL    HW234782   3.723   0.991   2.194
 7815SOL     OW34783   4.599   1.646   2.199
 7815SOL    HW134784   4.522   1.611   2.145
 7815SOL    HW234785   4.567   1.717   2.261
 7816SOL     OW34786   3.954   0.628   3.837
 7816SOL    HW134787   3.861   0.626   3.874
 7816SOL    HW234788   3.955   0.589   3.745
 7817SOL     OW34789   3.949   0.275   4.720
 7817SOL    HW134790   3.984   0.258   4.812
 7817SOL    HW234791   3.861   0.230   4.708
 7818SOL     OW34792   3.743   0.368   4.371
 7818SOL    HW134793   3.661   0.411   4.410
 7818SOL    HW234794   3.715   0.295   4.308
 7819SOL     OW34795   4.293   1.275   4.889
 7819SOL    HW134796   4.200   1.268   4.852
 7819SOL    HW234797   4.304   1.364   4.933
 7820SOL     OW34798   4.492   1.144   4.747
 7820SOL    HW134799   4.414   1.161   4.807
 7820SOL    HW234800   4.526   1.231   4.711
 7821SOL     OW34801   4.574   0.798   5.547
 7821SOL    HW134802   4.570   0.874   5.612
 7821SOL    HW234803   4.596   0.834   5.456
 7822SOL     OW34804   4.409   1.012   4.389
 7822SOL    HW134805   4.478   0.996   4.459
 7822SOL    HW234806   4.336   1.069   4.427
 7823SOL     OW34807   4.410   1.161   5.527
 7823SOL    HW134808   4.470   1.240   5.541
 7823SOL    HW234809   4.324   1.192   5.486
 7824SOL     OW34810   4.059   1.435   4.785
 7824SOL    HW134811   3.981   1.404   4.732
 7824SOL    HW234812   4.117   1.493   4.728
 7825SOL     OW34813   4.162   0.392   5.223
 7825SOL    HW134814   4.244   0.336   5.232
 7825SOL    HW234815   4.081   0.334   5.227
 7826SOL     OW34816   3.955   1.713   4.207
 7826SOL    HW134817   3.989   1.790   4.261
 7826SOL    HW234818   3.999   1.713   4.117
 7827SOL     OW34819   3.954   1.434   4.262
 7827SOL    HW134820   3.928   1.530   4.262
 7827SOL    HW234821   3.883   1.380   4.307
 7828SOL     OW34822   3.964   1.091   4.610
 7828SOL    HW134823   3.978   1.007   4.662
 7828SOL    HW234824   3.909   1.155   4.665
 7829SOL     OW34825   4.344   1.786   5.163
 7829SOL    HW134826   4.252   1.769   5.198
 7829SOL    HW234827   4.372   1.878   5.189
 7830SOL     OW34828   4.330   0.964   3.847
 7830SOL    HW134829   4.337   1.048   3.793
 7830SOL    HW234830   4.376   0.977   3.935
 7831SOL     OW34831   3.846   0.643   4.287
 7831SOL    HW134832   3.801   0.555   4.304
 7831SOL    HW234833   3.845   0.697   4.371
 7832SOL     OW34834   3.751   1.596   3.841
 7832SOL    HW134835   3.732   1.500   3.862
 7832SOL    HW234836   3.718   1.654   3.916
 7833SOL     OW34837   3.837   0.737   5.321
 7833SOL    HW134838   3.925   0.724   5.366
 7833SOL    HW234839   3.824   0.834   5.299
 7834SOL     OW34840   4.337   1.365   4.450
 7834SOL    HW134841   4.288   1.278   4.459
 7834SOL    HW234842   4.314   1.408   4.363
 7835SOL     OW34843   4.533   0.004   4.226
 7835SOL    HW134844   4.573   0.095   4.217
 7835SOL    HW234845   4.433   0.012   4.232
 7836SOL     OW34846   3.921   0.976   4.988
 7836SOL    HW134847   4.010   0.931   4.974
 7836SOL    HW234848   3.848   0.911   4.969
 7837SOL     OW34849   4.041   0.251   5.525
 7837SOL    HW134850   4.112   0.322   5.531
 7837SOL    HW234851   3.953   0.290   5.553
 7838SOL     OW34852   4.322   0.729   3.994
 7838SOL    HW134853   4.346   0.798   3.926
 7838SOL    HW234854   4.244   0.762   4.048
 7839SOL     OW34855   4.531   0.605   5.189
 7839SOL    HW134856   4.484   0.602   5.278
 7839SOL    HW234857   4.480   0.550   5.123
 7840SOL     OW34858   4.697   0.890   5.296
 7840SOL    HW134859   4.743   0.806   5.267
 7840SOL    HW234860   4.641   0.924   5.221
 7841SOL     OW34861   4.715   0.410   4.966
 7841SOL    HW134862   4.638   0.444   5.020
 7841SOL    HW234863   4.681   0.359   4.887
 7842SOL     OW34864   3.800   0.811   4.513
 7842SOL    HW134865   3.899   0.799   4.522
 7842SOL    HW234866   3.776   0.906   4.534
 7843SOL     OW34867   3.854   1.821   5.295
 7843SOL    HW134868   3.844   1.806   5.394
 7843SOL    HW234869   3.768   1.857   5.259
 7844SOL     OW34870   4.589   0.348   3.919
 7844SOL    HW134871   4.648   0.411   3.870
 7844SOL    HW234872   4.608   0.254   3.890
 7845SOL     OW34873   4.274   0.196   4.609
 7845SOL    HW134874   4.269   0.191   4.709
 7845SOL    HW234875   4.276   0.292   4.580
 7846SOL     OW34876   4.732   1.456   4.201
 7846SOL    HW134877   4.686   1.528   4.149
 7846SOL    HW234878   4.728   1.476   4.299
 7847SOL     OW34879   4.075   1.801   4.577
 7847SOL    HW134880   4.125   1.715   4.583
 7847SOL    HW234881   4.140   1.878   4.574
 7848SOL     OW34882   4.045   0.943   3.966
 7848SOL    HW134883   4.127   0.982   3.924
 7848SOL    HW234884   4.018   0.861   3.917
 7849SOL     OW34885   4.185   1.266   5.451
 7849SOL    HW134886   4.135   1.267   5.365
 7849SOL    HW234887   4.122   1.248   5.527
 7850SOL     OW34888   3.926   0.285   5.222
 7850SOL    HW134889   3.846   0.345   5.209
 7850SOL    HW234890   3.916   0.236   5.308
 7851SOL     OW34891   4.188   1.743   4.047
 7851SOL    HW134892   4.221   1.782   4.133
 7851SOL    HW234893   4.264   1.736   3.982
 7852SOL     OW34894   3.973   1.785   4.965
 7852SOL    HW134895   4.030   1.720   5.015
 7852SOL    HW234896   3.957   1.752   4.872
 7853SOL     OW34897   4.106   0.700   4.204
 7853SOL    HW134898   4.151   0.610   4.201
 7853SOL    HW234899   4.012   0.689   4.237
 7854SOL     OW34900   4.338   0.122   3.841
 7854SOL    HW134901   4.436   0.100   3.848
 7854SOL    HW234902   4.307   0.105   3.748
 7855SOL     OW34903   4.505   0.264   5.473
 7855SOL    HW134904   4.572   0.203   5.516
 7855SOL    HW234905   4.432   0.283   5.538
 7856SOL     OW34906   4.612   1.514   4.919
 7856SOL    HW134907   4.589   1.489   4.825
 7856SOL    HW234908   4.673   1.445   4.958
 7857SOL     OW34909   4.527   1.402   4.648
 7857SOL    HW134910   4.617   1.416   4.606
 7857SOL    HW234911   4.456   1.404   4.577
 7858SOL     OW34912   4.646   0.503   4.623
 7858SOL    HW134913   4.621   0.494   4.527
 7858SOL    HW234914   4.694   0.421   4.654
 7859SOL     OW34915   4.263   0.064   4.236
 7859SOL    HW134916   4.182   0.065   4.294
 7859SOL    HW234917   4.266   0.147   4.181
 7860SOL     OW34918   4.021   0.035   3.895
 7860SOL    HW134919   4.070   0.119   3.874
 7860SOL    HW234920   4.083  -0.030   3.940
 7861SOL     OW34921   4.659   0.236   4.204
 7861SOL    HW134922   4.611   0.277   4.126
 7861SOL    HW234923   4.758   0.234   4.185
 7862SOL     OW34924   4.951   1.570   4.517
 7862SOL    HW134925   4.972   1.644   4.452
 7862SOL    HW234926   5.019   1.570   4.590
 7863SOL     OW34927   4.183   1.152   4.465
 7863SOL    HW134928   4.112   1.125   4.530
 7863SOL    HW234929   4.157   1.124   4.372
 7864SOL     OW34930   4.756   0.549   3.740
 7864SOL    HW134931   4.715   0.631   3.701
 7864SOL    HW234932   4.820   0.575   3.813
 7865SOL     OW34933   3.802   0.556   5.110
 7865SOL    HW134934   3.894   0.555   5.069
 7865SOL    HW234935   3.796   0.630   5.177
 7866SOL     OW34936   4.285   0.222   4.871
 7866SOL    HW134937   4.323   0.138   4.908
 7866SOL    HW234938   4.197   0.241   4.915
 7867SOL     OW34939   4.590   0.454   4.366
 7867SOL    HW134940   4.558   0.526   4.304
 7867SOL    HW234941   4.614   0.373   4.313
 7868SOL     OW34942   4.741   0.039   4.477
 7868SOL    HW134943   4.669   0.044   4.408
 7868SOL    HW234944   4.717  -0.030   4.546
 7869SOL     OW34945   4.212   1.385   3.898
 7869SOL    HW134946   4.125   1.370   3.945
 7869SOL    HW234947   4.195   1.411   3.803
 7870SOL     OW34948   4.251   0.256   4.052
 7870SOL    HW134949   4.278   0.197   3.977
 7870SOL    HW234950   4.251   0.351   4.021
 7871SOL     OW34951   4.639   0.089   5.126
 7871SOL    HW134952   4.664   0.069   5.031
 7871SOL    HW234953   4.711   0.145   5.168
 7872SOL     OW34954   4.704   1.116   5.443
 7872SOL    HW134955   4.605   1.122   5.453
 7872SOL    HW234956   4.727   1.036   5.387
 7873SOL     OW34957   4.429   1.050   4.092
 7873SOL    HW134958   4.415   1.057   4.191
 7873SOL    HW234959   4.513   0.999   4.074
 7874SOL     OW34960   4.134   0.813   4.975
 7874SOL    HW134961   4.220   0.825   5.025
 7874SOL    HW234962   4.092   0.726   5.002
 7875SOL     OW34963   3.788   1.564   5.055
 7875SOL    HW134964   3.742   1.646   5.021
 7875SOL    HW234965   3.886   1.583   5.064
 7876SOL     OW34966   4.091   1.100   4.225
 7876SOL    HW134967   4.084   1.183   4.169
 7876SOL    HW234968   4.095   1.020   4.165
 7877SOL     OW34969   4.290   0.537   4.589
 7877SOL    HW134970   4.302   0.603   4.515
 7877SOL    HW234971   4.336   0.571   4.672
 7878SOL     OW34972   4.078   1.510   5.053
 7878SOL    HW134973   4.057   1.466   4.966
 7878SOL    HW234974   4.175   1.536   5.056
 7879SOL     OW34975   4.126   0.751   5.322
 7879SOL    HW134976   4.194   0.806   5.275
 7879SOL    HW234977   4.166   0.663   5.349
 7880SOL     OW34978   4.737   0.105   5.494
 7880SOL    HW134979   4.743   0.190   5.442
 7880SOL    HW234980   4.769   0.029   5.437
 7881SOL     OW34981   4.228   0.050   5.464
 7881SOL    HW134982   4.186  -0.007   5.394
 7881SOL    HW234983   4.162   0.119   5.496
 7882SOL     OW34984   4.297   0.870   4.753
 7882SOL    HW134985   4.341   0.959   4.744
 7882SOL    HW234986   4.234   0.870   4.830
 7883SOL     OW34987   4.933   0.525   3.999
 7883SOL    HW134988   4.946   0.441   4.053
 7883SOL    HW234989   4.904   0.599   4.059
 7884SOL     OW34990   4.031   0.213   4.955
 7884SOL    HW134991   4.008   0.250   5.045
 7884SOL    HW234992   4.001   0.118   4.949
 7885SOL     OW34993   3.761   1.310   5.006
 7885SOL    HW134994   3.814   1.261   5.074
 7885SOL    HW234995   3.783   1.408   5.011
 7886SOL     OW34996   4.456   0.634   4.788
 7886SOL    HW134997   4.515   0.608   4.712
 7886SOL    HW234998   4.428   0.730   4.777
 7887SOL     OW34999   4.031   0.063   4.342
 7887SOL    HW135000   4.020   0.157   4.375
 7887SOL    HW235001   4.026   0.000   4.419
 7888SOL     OW35002   4.747   0.766   4.690
 7888SOL    HW135003   4.762   0.787   4.786
 7888SOL    HW235004   4.717   0.671   4.681
 7889SOL     OW35005   4.704   1.573   5.424
 7889SOL    HW135006   4.684   1.617   5.336
 7889SOL    HW235007   4.743   1.482   5.408
 7890SOL     OW35008   4.074   0.898   5.528
 7890SOL    HW135009   4.150   0.942   5.576
 7890SOL    HW235010   4.109   0.851   5.446
 7891SOL     OW35011   4.043   0.810   4.673
 7891SOL    HW135012   4.136   0.846   4.678
 7891SOL    HW235013   4.037   0.725   4.725
 7892SOL     OW35014   4.063   0.509   4.730
 7892SOL    HW135015   4.011   0.426   4.713
 7892SOL    HW235016   4.140   0.514   4.666
 7893SOL     OW35017   3.732   1.326   3.924
 7893SOL    HW135018   3.639   1.347   3.893
 7893SOL    HW235019   3.742   1.227   3.937
 7894SOL     OW35020   3.812   1.801   4.651
 7894SOL    HW135021   3.770   1.715   4.624
 7894SOL    HW235022   3.906   1.804   4.617
 7895SOL     OW35023   4.228   1.568   4.634
 7895SOL    HW135024   4.294   1.642   4.643
 7895SOL    HW235025   4.272   1.489   4.592
 7896SOL     OW35026   4.726   0.796   4.962
 7896SOL    HW135027   4.767   0.764   5.048
 7896SOL    HW235028   4.630   0.769   4.959
 7897SOL     OW35029   3.764   0.544   4.838
 7897SOL    HW135030   3.849   0.511   4.797
 7897SOL    HW235031   3.777   0.559   4.936
 7898SOL     OW35032   3.913   0.520   5.446
 7898SOL    HW135033   3.972   0.480   5.376
 7898SOL    HW235034   3.855   0.591   5.405
 7899SOL     OW35035   4.539   0.572   4.049
 7899SOL    HW135036   4.546   0.483   4.003
 7899SOL    HW235037   4.445   0.606   4.041
 7900SOL     OW35038   3.976   1.564   5.468
 7900SOL    HW135039   3.946   1.621   5.544
 7900SOL    HW235040   3.969   1.467   5.494
 7901SOL     OW35041   4.395   0.464   4.993
 7901SOL    HW135042   4.361   0.375   4.963
 7901SOL    HW235043   4.421   0.518   4.913
 7902SOL     OW35044   4.654   1.678   5.189
 7902SOL    HW135045   4.630   1.660   5.094
 7902SOL    HW235046   4.684   1.772   5.199
 7903SOL     OW35047   4.197   0.500   3.915
 7903SOL    HW135048   4.258   0.580   3.919
 7903SOL    HW235049   4.102   0.531   3.922
 7904SOL     OW35050   3.883   1.137   5.190
 7904SOL    HW135051   3.905   1.076   5.266
 7904SOL    HW235052   3.893   1.088   5.104
 7905SOL     OW35053   3.807   1.258   4.746
 7905SOL    HW135054   3.802   1.257   4.846
 7905SOL    HW235055   3.724   1.217   4.708
 7906SOL     OW35056   4.412   1.662   5.440
 7906SOL    HW135057   4.356   1.743   5.449
 7906SOL    HW235058   4.464   1.666   5.354
 7907SOL     OW35059   3.854   1.794   5.575
 7907SOL    HW135060   3.813   1.720   5.628
 7907SOL    HW235061   3.918   1.845   5.633
 7908SOL     OW35062   5.004   0.927   4.396
 7908SOL    HW135063   5.064   0.846   4.398
 7908SOL    HW235064   5.044   0.996   4.336
 7909SOL     OW35065   4.554   1.273   5.146
 7909SOL    HW135066   4.549   1.306   5.241
 7909SOL    HW235067   4.468   1.292   5.100
 7910SOL     OW35068   4.396   1.616   3.878
 7910SOL    HW135069   4.405   1.626   3.779
 7910SOL    HW235070   4.356   1.527   3.899
 7911SOL     OW35071   3.987   0.326   4.444
 7911SOL    HW135072   3.908   0.377   4.410
 7911SOL    HW235073   3.978   0.311   4.542
 7912SOL     OW35074   4.546   1.002   5.096
 7912SOL    HW135075   4.586   1.001   5.004
 7912SOL    HW235076   4.556   1.094   5.136
 7913SOL     OW35077   4.640   0.910   4.015
 7913SOL    HW135078   4.703   0.948   3.947
 7913SOL    HW235079   4.680   0.827   4.054
 7914SOL     OW35080   4.096   1.288   5.214
 7914SOL    HW135081   4.083   1.381   5.180
 7914SOL    HW235082   4.012   1.236   5.201
 7915SOL     OW35083   4.763   1.098   4.420
 7915SOL    HW135084   4.693   1.051   4.474
 7915SOL    HW235085   4.822   1.030   4.377
 7916SOL     OW35086   4.738   0.236   4.695
 7916SOL    HW135087   4.730   0.200   4.602
 7916SOL    HW235088   4.736   0.160   4.760
 7917SOL     OW35089   4.314   1.487   4.215
 7917SOL    HW135090   4.356   1.429   4.145
 7917SOL    HW235091   4.270   1.566   4.171
 7918SOL     OW35092   3.979   1.348   4.014
 7918SOL    HW135093   3.883   1.349   3.987
 7918SOL    HW235094   3.991   1.401   4.098
 7919SOL     OW35095   3.829   1.013   5.450
 7919SOL    HW135096   3.752   0.980   5.504
 7919SOL    HW235097   3.914   0.983   5.492
 7920SOL     OW35098   4.396   0.203   5.213
 7920SOL    HW135099   4.486   0.187   5.173
 7920SOL    HW235100   4.404   0.208   5.312
 7921SOL     OW35101   3.799   0.345   3.757
 7921SOL    HW135102   3.707   0.317   3.728
 7921SOL    HW235103   3.830   0.422   3.701
 7922SOL     OW35104   3.796   0.166   4.042
 7922SOL    HW135105   3.779   0.249   3.988
 7922SOL    HW235106   3.886   0.129   4.020
 7923SOL     OW35107   4.337   0.842   5.155
 7923SOL    HW135108   4.393   0.923   5.138
 7923SOL    HW235109   4.396   0.762   5.158
 7924SOL     OW35110   4.440   0.565   5.432
 7924SOL    HW135111   4.459   0.630   5.506
 7924SOL    HW235112   4.500   0.485   5.441
 7925SOL     OW35113   4.114   1.741   5.284
 7925SOL    HW135114   4.023   1.782   5.282
 7925SOL    HW235115   4.107   1.647   5.316
 7926SOL     OW35116   4.949   0.325   4.173
 7926SOL    HW135117   5.014   0.251   4.162
 7926SOL    HW235118   4.969   0.375   4.257
 7927SOL     OW35119   4.318   0.745   4.376
 7927SOL    HW135120   4.368   0.830   4.357
 7927SOL    HW235121   4.230   0.747   4.328
 7928SOL     OW35122   4.583   1.374   3.740
 7928SOL    HW135123   4.537   1.389   3.828
 7928SOL    HW235124   4.627   1.459   3.710
 7929SOL     OW35125   4.385   1.790   4.677
 7929SOL    HW135126   4.339   1.878   4.664
 7929SOL    HW235127   4.484   1.802   4.670
 7930SOL     OW35128   4.583   0.956   4.585
 7930SOL    HW135129   4.637   0.887   4.633
 7930SOL    HW235130   4.551   1.025   4.651
 7931SOL     OW35131   3.945   1.314   5.568
 7931SOL    HW135132   3.880   1.241   5.547
 7931SOL    HW235133   3.949   1.328   5.666
 7932SOL     OW35134   3.803   1.240   4.377
 7932SOL    HW135135   3.802   1.193   4.465
 7932SOL    HW235136   3.885   1.212   4.326
 7933SOL     OW35137   4.396   1.391   5.348
 7933SOL    HW135138   4.318   1.341   5.386
 7933SOL    HW235139   4.393   1.486   5.379
 7934SOL     OW35140   4.152   0.424   4.244
 7934SOL    HW135141   4.182   0.352   4.182
 7934SOL    HW235142   4.113   0.384   4.327
 7935SOL     OW35143   4.041   0.547   5.004
 7935SOL    HW135144   4.079   0.488   5.076
 7935SOL    HW235145   4.081   0.521   4.916
 7936SOL     OW35146   4.536   1.586   4.411
 7936SOL    HW135147   4.568   1.596   4.317
 7936SOL    HW235148   4.457   1.524   4.413
 7937SOL     OW35149   4.725   0.034   4.878
 7937SOL    HW135150   4.662  -0.038   4.847
 7937SOL    HW235151   4.818  -0.002   4.878
 7938SOL     OW35152   4.494   1.330   4.025
 7938SOL    HW135153   4.448   1.243   4.042
 7938SOL    HW235154   4.585   1.327   4.066
 7939SOL     OW35155   4.342   1.567   5.008
 7939SOL    HW135156   4.337   1.649   5.065
 7939SOL    HW235157   4.431   1.564   4.963
 7940SOL     OW35158   3.763   1.077   4.024
 7940SOL    HW135159   3.862   1.066   4.015
 7940SOL    HW235160   3.723   0.991   4.056
 7941SOL     OW35161   4.599   1.646   4.061
 7941SOL    HW135162   4.522   1.611   4.007
 7941SOL    HW235163   4.567   1.717   4.123
 7942SOL     OW35164   3.954   0.628   5.699
 7942SOL    HW135165   3.861   0.626   5.736
 7942SOL    HW235166   3.955   0.589   5.607
 7943SOL     OW35167   3.949   0.275   6.582
 7943SOL    HW135168   3.984   0.258   6.674
 7943SOL    HW235169   3.861   0.230   6.570
 7944SOL     OW35170   3.743   0.368   6.233
 7944SOL    HW135171   3.661   0.411   6.272
 7944SOL    HW235172   3.715   0.295   6.170
 7945SOL     OW35173   4.293   1.275   6.751
 7945SOL    HW135174   4.200   1.268   6.714
 7945SOL    HW235175   4.304   1.364   6.795
 7946SOL     OW35176   4.492   1.144   6.609
 7946SOL    HW135177   4.414   1.161   6.669
 7946SOL    HW235178   4.526   1.231   6.573
 7947SOL     OW35179   4.574   0.798   7.409
 7947SOL    HW135180   4.570   0.874   7.474
 7947SOL    HW235181   4.596   0.834   7.318
 7948SOL     OW35182   4.409   1.012   6.251
 7948SOL    HW135183   4.478   0.996   6.321
 7948SOL    HW235184   4.336   1.069   6.289
 7949SOL     OW35185   4.410   1.161   7.389
 7949SOL    HW135186   4.470   1.240   7.403
 7949SOL    HW235187   4.324   1.192   7.348
 7950SOL     OW35188   4.059   1.435   6.647
 7950SOL    HW135189   3.981   1.404   6.594
 7950SOL    HW235190   4.117   1.493   6.590
 7951SOL     OW35191   4.162   0.392   7.085
 7951SOL    HW135192   4.244   0.336   7.094
 7951SOL    HW235193   4.081   0.334   7.089
 7952SOL     OW35194   3.955   1.713   6.069
 7952SOL    HW135195   3.989   1.790   6.123
 7952SOL    HW235196   3.999   1.713   5.979
 7953SOL     OW35197   3.954   1.434   6.124
 7953SOL    HW135198   3.928   1.530   6.124
 7953SOL    HW235199   3.883   1.380   6.169
 7954SOL     OW35200   3.964   1.091   6.472
 7954SOL    HW135201   3.978   1.007   6.524
 7954SOL    HW235202   3.909   1.155   6.527
 7955SOL     OW35203   4.344   1.786   7.025
 7955SOL    HW135204   4.252   1.769   7.060
 7955SOL    HW235205   4.372   1.878   7.051
 7956SOL     OW35206   4.330   0.964   5.709
 7956SOL    HW135207   4.337   1.048   5.655
 7956SOL    HW235208   4.376   0.977   5.797
 7957SOL     OW35209   3.846   0.643   6.149
 7957SOL    HW135210   3.801   0.555   6.166
 7957SOL    HW235211   3.845   0.697   6.233
 7958SOL     OW35212   3.751   1.596   5.703
 7958SOL    HW135213   3.732   1.500   5.724
 7958SOL    HW235214   3.718   1.654   5.778
 7959SOL     OW35215   3.837   0.737   7.183
 7959SOL    HW135216   3.925   0.724   7.228
 7959SOL    HW235217   3.824   0.834   7.161
 7960SOL     OW35218   4.337   1.365   6.312
 7960SOL    HW135219   4.288   1.278   6.321
 7960SOL    HW235220   4.314   1.408   6.225
 7961SOL     OW35221   4.533   0.004   6.088
 7961SOL    HW135222   4.573   0.095   6.079
 7961SOL    HW235223   4.433   0.012   6.094
 7962SOL     OW35224   3.921   0.976   6.850
 7962SOL    HW135225   4.010   0.931   6.836
 7962SOL    HW235226   3.848   0.911   6.831
 7963SOL     OW35227   4.041   0.251   7.387
 7963SOL    HW135228   4.112   0.322   7.393
 7963SOL    HW235229   3.953   0.290   7.415
 7964SOL     OW35230   4.322   0.729   5.856
 7964SOL    HW135231   4.346   0.798   5.788
 7964SOL    HW235232   4.244   0.762   5.910
 7965SOL     OW35233   4.531   0.605   7.051
 7965SOL    HW135234   4.484   0.602   7.140
 7965SOL    HW235235   4.480   0.550   6.985
 7966SOL     OW35236   4.697   0.890   7.158
 7966SOL    HW135237   4.743   0.806   7.129
 7966SOL    HW235238   4.641   0.924   7.083
 7967SOL     OW35239   4.715   0.410   6.828
 7967SOL    HW135240   4.638   0.444   6.882
 7967SOL    HW235241   4.681   0.359   6.749
 7968SOL     OW35242   3.800   0.811   6.375
 7968SOL    HW135243   3.899   0.799   6.384
 7968SOL    HW235244   3.776   0.906   6.396
 7969SOL     OW35245   3.854   1.821   7.157
 7969SOL    HW135246   3.844   1.806   7.256
 7969SOL    HW235247   3.768   1.857   7.121
 7970SOL     OW35248   4.589   0.348   5.781
 7970SOL    HW135249   4.648   0.411   5.732
 7970SOL    HW235250   4.608   0.254   5.752
 7971SOL     OW35251   4.274   0.196   6.471
 7971SOL    HW135252   4.269   0.191   6.571
 7971SOL    HW235253   4.276   0.292   6.442
 7972SOL     OW35254   4.732   1.456   6.063
 7972SOL    HW135255   4.686   1.528   6.011
 7972SOL    HW235256   4.728   1.476   6.161
 7973SOL     OW35257   4.045   0.943   5.828
 7973SOL    HW135258   4.127   0.982   5.786
 7973SOL    HW235259   4.018   0.861   5.779
 7974SOL     OW35260   4.185   1.266   7.313
 7974SOL    HW135261   4.135   1.267   7.227
 7974SOL    HW235262   4.122   1.248   7.389
 7975SOL     OW35263   3.926   0.285   7.084
 7975SOL    HW135264   3.846   0.345   7.071
 7975SOL    HW235265   3.916   0.236   7.170
 7976SOL     OW35266   4.188   1.743   5.909
 7976SOL    HW135267   4.221   1.782   5.995
 7976SOL    HW235268   4.264   1.736   5.844
 7977SOL     OW35269   3.973   1.785   6.827
 7977SOL    HW135270   4.030   1.720   6.877
 7977SOL    HW235271   3.957   1.752   6.734
 7978SOL     OW35272   4.106   0.700   6.066
 7978SOL    HW135273   4.151   0.610   6.063
 7978SOL    HW235274   4.012   0.689   6.099
 7979SOL     OW35275   4.338   0.122   5.703
 7979SOL    HW135276   4.436   0.100   5.710
 7979SOL    HW235277   4.307   0.105   5.610
 7980SOL     OW35278   4.505   0.264   7.335
 7980SOL    HW135279   4.572   0.203   7.378
 7980SOL    HW235280   4.432   0.283   7.400
 7981SOL     OW35281   4.612   1.514   6.781
 7981SOL    HW135282   4.589   1.489   6.687
 7981SOL    HW235283   4.673   1.445   6.820
 7982SOL     OW35284   4.527   1.402   6.510
 7982SOL    HW135285   4.617   1.416   6.468
 7982SOL    HW235286   4.456   1.404   6.439
 7983SOL     OW35287   4.646   0.503   6.485
 7983SOL    HW135288   4.621   0.494   6.389
 7983SOL    HW235289   4.694   0.421   6.516
 7984SOL     OW35290   4.263   0.064   6.098
 7984SOL    HW135291   4.182   0.065   6.156
 7984SOL    HW235292   4.266   0.147   6.043
 7985SOL     OW35293   4.021   0.035   5.757
 7985SOL    HW135294   4.070   0.119   5.736
 7985SOL    HW235295   4.083  -0.030   5.802
 7986SOL     OW35296   4.659   0.236   6.066
 7986SOL    HW135297   4.611   0.277   5.988
 7986SOL    HW235298   4.758   0.234   6.047
 7987SOL     OW35299   4.951   1.570   6.379
 7987SOL    HW135300   4.972   1.644   6.314
 7987SOL    HW235301   5.019   1.570   6.452
 7988SOL     OW35302   4.183   1.152   6.327
 7988SOL    HW135303   4.112   1.125   6.392
 7988SOL    HW235304   4.157   1.124   6.234
 7989SOL     OW35305   4.756   0.549   5.602
 7989SOL    HW135306   4.715   0.631   5.563
 7989SOL    HW235307   4.820   0.575   5.675
 7990SOL     OW35308   3.802   0.556   6.972
 7990SOL    HW135309   3.894   0.555   6.931
 7990SOL    HW235310   3.796   0.630   7.039
 7991SOL     OW35311   4.285   0.222   6.733
 7991SOL    HW135312   4.323   0.138   6.770
 7991SOL    HW235313   4.197   0.241   6.777
 7992SOL     OW35314   4.590   0.454   6.228
 7992SOL    HW135315   4.558   0.526   6.166
 7992SOL    HW235316   4.614   0.373   6.175
 7993SOL     OW35317   4.741   0.039   6.339
 7993SOL    HW135318   4.669   0.044   6.270
 7993SOL    HW235319   4.717  -0.030   6.408
 7994SOL     OW35320   4.212   1.385   5.760
 7994SOL    HW135321   4.125   1.370   5.807
 7994SOL    HW235322   4.195   1.411   5.665
 7995SOL     OW35323   4.251   0.256   5.914
 7995SOL    HW135324   4.278   0.197   5.839
 7995SOL    HW235325   4.251   0.351   5.883
 7996SOL     OW35326   4.639   0.089   6.988
 7996SOL    HW135327   4.664   0.069   6.893
 7996SOL    HW235328   4.711   0.145   7.030
 7997SOL     OW35329   4.704   1.116   7.305
 7997SOL    HW135330   4.605   1.122   7.315
 7997SOL    HW235331   4.727   1.036   7.249
 7998SOL     OW35332   4.429   1.050   5.954
 7998SOL    HW135333   4.415   1.057   6.053
 7998SOL    HW235334   4.513   0.999   5.936
 7999SOL     OW35335   4.134   0.813   6.837
 7999SOL    HW135336   4.220   0.825   6.887
 7999SOL    HW235337   4.092   0.726   6.864
 8000SOL     OW35338   3.788   1.564   6.917
 8000SOL    HW135339   3.742   1.646   6.883
 8000SOL    HW235340   3.886   1.583   6.926
 8001SOL     OW35341   4.091   1.100   6.087
 8001SOL    HW135342   4.084   1.183   6.031
 8001SOL    HW235343   4.095   1.020   6.027
 8002SOL     OW35344   4.290   0.537   6.451
 8002SOL    HW135345   4.302   0.603   6.377
 8002SOL    HW235346   4.336   0.571   6.534
 8003SOL     OW35347   4.078   1.510   6.915
 8003SOL    HW135348   4.057   1.466   6.828
 8003SOL    HW235349   4.175   1.536   6.918
 8004SOL     OW35350   4.126   0.751   7.184
 8004SOL    HW135351   4.194   0.806   7.137
 8004SOL    HW235352   4.166   0.663   7.211
 8005SOL     OW35353   4.737   0.105   7.356
 8005SOL    HW135354   4.743   0.190   7.304
 8005SOL    HW235355   4.769   0.029   7.299
 8006SOL     OW35356   4.228   0.050   7.326
 8006SOL    HW135357   4.186  -0.007   7.256
 8006SOL    HW235358   4.162   0.119   7.358
 8007SOL     OW35359   4.297   0.870   6.615
 8007SOL    HW135360   4.341   0.959   6.606
 8007SOL    HW235361   4.234   0.870   6.692
 8008SOL     OW35362   4.933   0.525   5.861
 8008SOL    HW135363   4.946   0.441   5.915
 8008SOL    HW235364   4.904   0.599   5.921
 8009SOL     OW35365   4.031   0.213   6.817
 8009SOL    HW135366   4.008   0.250   6.907
 8009SOL    HW235367   4.001   0.118   6.811
 8010SOL     OW35368   3.761   1.310   6.868
 8010SOL    HW135369   3.814   1.261   6.936
 8010SOL    HW235370   3.783   1.408   6.873
 8011SOL     OW35371   4.031   0.063   6.204
 8011SOL    HW135372   4.020   0.157   6.237
 8011SOL    HW235373   4.026   0.000   6.281
 8012SOL     OW35374   4.747   0.766   6.552
 8012SOL    HW135375   4.762   0.787   6.648
 8012SOL    HW235376   4.717   0.671   6.543
 8013SOL     OW35377   4.704   1.573   7.286
 8013SOL    HW135378   4.684   1.617   7.198
 8013SOL    HW235379   4.743   1.482   7.270
 8014SOL     OW35380   4.074   0.898   7.390
 8014SOL    HW135381   4.150   0.942   7.438
 8014SOL    HW235382   4.109   0.851   7.308
 8015SOL     OW35383   4.043   0.810   6.535
 8015SOL    HW135384   4.136   0.846   6.540
 8015SOL    HW235385   4.037   0.725   6.587
 8016SOL     OW35386   4.063   0.509   6.592
 8016SOL    HW135387   4.011   0.426   6.575
 8016SOL    HW235388   4.140   0.514   6.528
 8017SOL     OW35389   3.732   1.326   5.786
 8017SOL    HW135390   3.639   1.347   5.755
 8017SOL    HW235391   3.742   1.227   5.799
 8018SOL     OW35392   3.812   1.801   6.513
 8018SOL    HW135393   3.770   1.715   6.486
 8018SOL    HW235394   3.906   1.804   6.479
 8019SOL     OW35395   4.228   1.568   6.496
 8019SOL    HW135396   4.294   1.642   6.505
 8019SOL    HW235397   4.272   1.489   6.454
 8020SOL     OW35398   4.726   0.796   6.824
 8020SOL    HW135399   4.767   0.764   6.910
 8020SOL    HW235400   4.630   0.769   6.821
 8021SOL     OW35401   3.764   0.544   6.700
 8021SOL    HW135402   3.849   0.511   6.659
 8021SOL    HW235403   3.777   0.559   6.798
 8022SOL     OW35404   3.913   0.520   7.308
 8022SOL    HW135405   3.972   0.480   7.238
 8022SOL    HW235406   3.855   0.591   7.267
 8023SOL     OW35407   4.539   0.572   5.911
 8023SOL    HW135408   4.546   0.483   5.865
 8023SOL    HW235409   4.445   0.606   5.903
 8024SOL     OW35410   3.976   1.564   7.330
 8024SOL    HW135411   3.946   1.621   7.406
 8024SOL    HW235412   3.969   1.467   7.356
 8025SOL     OW35413   4.654   1.678   7.051
 8025SOL    HW135414   4.630   1.660   6.956
 8025SOL    HW235415   4.684   1.772   7.061
 8026SOL     OW35416   4.197   0.500   5.777
 8026SOL    HW135417   4.258   0.580   5.781
 8026SOL    HW235418   4.102   0.531   5.784
 8027SOL     OW35419   3.883   1.137   7.052
 8027SOL    HW135420   3.905   1.076   7.128
 8027SOL    HW235421   3.893   1.088   6.966
 8028SOL     OW35422   3.807   1.258   6.608
 8028SOL    HW135423   3.802   1.257   6.708
 8028SOL    HW235424   3.724   1.217   6.570
 8029SOL     OW35425   4.412   1.662   7.302
 8029SOL    HW135426   4.356   1.743   7.311
 8029SOL    HW235427   4.464   1.666   7.216
 8030SOL     OW35428   3.854   1.794   7.437
 8030SOL    HW135429   3.813   1.720   7.490
 8030SOL    HW235430   3.918   1.845   7.495
 8031SOL     OW35431   5.004   0.927   6.258
 8031SOL    HW135432   5.064   0.846   6.260
 8031SOL    HW235433   5.044   0.996   6.198
 8032SOL     OW35434   4.554   1.273   7.008
 8032SOL    HW135435   4.549   1.306   7.103
 8032SOL    HW235436   4.468   1.292   6.962
 8033SOL     OW35437   4.396   1.616   5.740
 8033SOL    HW135438   4.405   1.626   5.641
 8033SOL    HW235439   4.356   1.527   5.761
 8034SOL     OW35440   3.987   0.326   6.306
 8034SOL    HW135441   3.908   0.377   6.272
 8034SOL    HW235442   3.978   0.311   6.404
 8035SOL     OW35443   4.546   1.002   6.958
 8035SOL    HW135444   4.586   1.001   6.866
 8035SOL    HW235445   4.556   1.094   6.998
 8036SOL     OW35446   4.640   0.910   5.877
 8036SOL    HW135447   4.703   0.948   5.809
 8036SOL    HW235448   4.680   0.827   5.916
 8037SOL     OW35449   4.096   1.288   7.076
 8037SOL    HW135450   4.083   1.381   7.042
 8037SOL    HW235451   4.012   1.236   7.063
 8038SOL     OW35452   4.763   1.098   6.282
 8038SOL    HW135453   4.693   1.051   6.336
 8038SOL    HW235454   4.822   1.030   6.239
 8039SOL     OW35455   4.738   0.236   6.557
 8039SOL    HW135456   4.730   0.200   6.464
 8039SOL    HW235457   4.736   0.160   6.622
 8040SOL     OW35458   4.314   1.487   6.077
 8040SOL    HW135459   4.356   1.429   6.007
 8040SOL    HW235460   4.270   1.566   6.033
 8041SOL     OW35461   3.979   1.348   5.876
 8041SOL    HW135462   3.883   1.349   5.849
 8041SOL    HW235463   3.991   1.401   5.960
 8042SOL     OW35464   3.829   1.013   7.312
 8042SOL    HW135465   3.752   0.980   7.366
 8042SOL    HW235466   3.914   0.983   7.354
 8043SOL     OW35467   4.396   0.203   7.075
 8043SOL    HW135468   4.486   0.187   7.035
 8043SOL    HW235469   4.404   0.208   7.174
 8044SOL     OW35470   3.799   0.345   5.619
 8044SOL    HW135471   3.707   0.317   5.590
 8044SOL    HW235472   3.830   0.422   5.563
 8045SOL     OW35473   3.796   0.166   5.904
 8045SOL    HW135474   3.779   0.249   5.850
 8045SOL    HW235475   3.886   0.129   5.882
 8046SOL     OW35476   4.337   0.842   7.017
 8046SOL    HW135477   4.393   0.923   7.000
 8046SOL    HW235478   4.396   0.762   7.020
 8047SOL     OW35479   4.440   0.565   7.294
 8047SOL    HW135480   4.459   0.630   7.368
 8047SOL    HW235481   4.500   0.485   7.303
 8048SOL     OW35482   4.114   1.741   7.146
 8048SOL    HW135483   4.023   1.782   7.144
 8048SOL    HW235484   4.107   1.647   7.178
 8049SOL     OW35485   4.949   0.325   6.035
 8049SOL    HW135486   5.014   0.251   6.024
 8049SOL    HW235487   4.969   0.375   6.119
 8050SOL     OW35488   4.318   0.745   6.238
 8050SOL    HW135489   4.368   0.830   6.219
 8050SOL    HW235490   4.230   0.747   6.190
 8051SOL     OW35491   4.583   1.374   5.602
 8051SOL    HW135492   4.537   1.389   5.690
 8051SOL    HW235493   4.627   1.459   5.572
 8052SOL     OW35494   4.385   1.790   6.539
 8052SOL    HW135495   4.339   1.878   6.526
 8052SOL    HW235496   4.484   1.802   6.532
 8053SOL     OW35497   4.583   0.956   6.447
 8053SOL    HW135498   4.637   0.887   6.495
 8053SOL    HW235499   4.551   1.025   6.513
 8054SOL     OW35500   3.945   1.314   7.430
 8054SOL    HW135501   3.880   1.241   7.409
 8054SOL    HW235502   3.949   1.328   7.528
 8055SOL     OW35503   3.803   1.240   6.239
 8055SOL    HW135504   3.802   1.193   6.327
 8055SOL    HW235505   3.885   1.212   6.188
 8056SOL     OW35506   4.396   1.391   7.210
 8056SOL    HW135507   4.318   1.341   7.248
 8056SOL    HW235508   4.393   1.486   7.241
 8057SOL     OW35509   4.152   0.424   6.106
 8057SOL    HW135510   4.182   0.352   6.044
 8057SOL    HW235511   4.113   0.384   6.189
 8058SOL     OW35512   4.041   0.547   6.866
 8058SOL    HW135513   4.079   0.488   6.938
 8058SOL    HW235514   4.081   0.521   6.778
 8059SOL     OW35515   4.536   1.586   6.273
 8059SOL    HW135516   4.568   1.596   6.179
 8059SOL    HW235517   4.457   1.524   6.275
 8060SOL     OW35518   4.725   0.034   6.740
 8060SOL    HW135519   4.662  -0.038   6.709
 8060SOL    HW235520   4.818  -0.002   6.740
 8061SOL     OW35521   4.494   1.330   5.887
 8061SOL    HW135522   4.448   1.243   5.904
 8061SOL    HW235523   4.585   1.327   5.928
 8062SOL     OW35524   4.342   1.567   6.870
 8062SOL    HW135525   4.337   1.649   6.927
 8062SOL    HW235526   4.431   1.564   6.825
 8063SOL     OW35527   3.763   1.077   5.886
 8063SOL    HW135528   3.862   1.066   5.877
 8063SOL    HW235529   3.723   0.991   5.918
 8064SOL     OW35530   4.599   1.646   5.923
 8064SOL    HW135531   4.522   1.611   5.869
 8064SOL    HW235532   4.567   1.717   5.985
 8065SOL     OW35533   3.954   0.628   7.561
 8065SOL    HW135534   3.861   0.626   7.598
 8065SOL    HW235535   3.955   0.589   7.469
 8066SOL     OW35536   3.949   0.275   8.444
 8066SOL    HW135537   3.984   0.258   8.536
 8066SOL    HW235538   3.861   0.230   8.432
 8067SOL     OW35539   3.743   0.368   8.095
 8067SOL    HW135540   3.661   0.411   8.134
 8067SOL    HW235541   3.715   0.295   8.032
 8068SOL     OW35542   4.293   1.275   8.613
 8068SOL    HW135543   4.200   1.268   8.576
 8068SOL    HW235544   4.304   1.364   8.657
 8069SOL     OW35545   4.492   1.144   8.471
 8069SOL    HW135546   4.414   1.161   8.531
 8069SOL    HW235547   4.526   1.231   8.435
 8070SOL     OW35548   4.574   0.798   9.271
 8070SOL    HW135549   4.570   0.874   9.336
 8070SOL    HW235550   4.596   0.834   9.180
 8071SOL     OW35551   4.409   1.012   8.113
 8071SOL    HW135552   4.478   0.996   8.183
 8071SOL    HW235553   4.336   1.069   8.151
 8072SOL     OW35554   4.410   1.161   9.251
 8072SOL    HW135555   4.470   1.240   9.265
 8072SOL    HW235556   4.324   1.192   9.210
 8073SOL     OW35557   4.059   1.435   8.509
 8073SOL    HW135558   3.981   1.404   8.456
 8073SOL    HW235559   4.117   1.493   8.452
 8074SOL     OW35560   4.162   0.392   8.947
 8074SOL    HW135561   4.244   0.336   8.956
 8074SOL    HW235562   4.081   0.334   8.951
 8075SOL     OW35563   3.955   1.713   7.931
 8075SOL    HW135564   3.989   1.790   7.985
 8075SOL    HW235565   3.999   1.713   7.841
 8076SOL     OW35566   3.954   1.434   7.986
 8076SOL    HW135567   3.928   1.530   7.986
 8076SOL    HW235568   3.883   1.380   8.031
 8077SOL     OW35569   3.964   1.091   8.334
 8077SOL    HW135570   3.978   1.007   8.386
 8077SOL    HW235571   3.909   1.155   8.389
 8078SOL     OW35572   4.344   1.786   8.887
 8078SOL    HW135573   4.252   1.769   8.922
 8078SOL    HW235574   4.372   1.878   8.913
 8079SOL     OW35575   4.330   0.964   7.571
 8079SOL    HW135576   4.337   1.048   7.517
 8079SOL    HW235577   4.376   0.977   7.659
 8080SOL     OW35578   3.846   0.643   8.011
 8080SOL    HW135579   3.801   0.555   8.028
 8080SOL    HW235580   3.845   0.697   8.095
 8081SOL     OW35581   3.751   1.596   7.565
 8081SOL    HW135582   3.732   1.500   7.586
 8081SOL    HW235583   3.718   1.654   7.640
 8082SOL     OW35584   3.837   0.737   9.045
 8082SOL    HW135585   3.925   0.724   9.090
 8082SOL    HW235586   3.824   0.834   9.023
 8083SOL     OW35587   4.337   1.365   8.174
 8083SOL    HW135588   4.288   1.278   8.183
 8083SOL    HW235589   4.314   1.408   8.087
 8084SOL     OW35590   4.533   0.004   7.950
 8084SOL    HW135591   4.573   0.095   7.941
 8084SOL    HW235592   4.433   0.012   7.956
 8085SOL     OW35593   3.921   0.976   8.712
 8085SOL    HW135594   4.010   0.931   8.698
 8085SOL    HW235595   3.848   0.911   8.693
 8086SOL     OW35596   4.041   0.251   9.249
 8086SOL    HW135597   4.112   0.322   9.255
 8086SOL    HW235598   3.953   0.290   9.277
 8087SOL     OW35599   4.322   0.729   7.718
 8087SOL    HW135600   4.346   0.798   7.650
 8087SOL    HW235601   4.244   0.762   7.772
 8088SOL     OW35602   4.531   0.605   8.913
 8088SOL    HW135603   4.484   0.602   9.002
 8088SOL    HW235604   4.480   0.550   8.847
 8089SOL     OW35605   4.697   0.890   9.020
 8089SOL    HW135606   4.743   0.806   8.991
 8089SOL    HW235607   4.641   0.924   8.945
 8090SOL     OW35608   4.715   0.410   8.690
 8090SOL    HW135609   4.638   0.444   8.744
 8090SOL    HW235610   4.681   0.359   8.611
 8091SOL     OW35611   3.800   0.811   8.237
 8091SOL    HW135612   3.899   0.799   8.246
 8091SOL    HW235613   3.776   0.906   8.258
 8092SOL     OW35614   3.854   1.821   9.019
 8092SOL    HW135615   3.844   1.806   9.118
 8092SOL    HW235616   3.768   1.857   8.983
 8093SOL     OW35617   4.589   0.348   7.643
 8093SOL    HW135618   4.648   0.411   7.594
 8093SOL    HW235619   4.608   0.254   7.614
 8094SOL     OW35620   4.274   0.196   8.333
 8094SOL    HW135621   4.269   0.191   8.433
 8094SOL    HW235622   4.276   0.292   8.304
 8095SOL     OW35623   4.732   1.456   7.925
 8095SOL    HW135624   4.686   1.528   7.873
 8095SOL    HW235625   4.728   1.476   8.023
 8096SOL     OW35626   4.075   1.801   8.301
 8096SOL    HW135627   4.125   1.715   8.307
 8096SOL    HW235628   4.140   1.878   8.298
 8097SOL     OW35629   4.045   0.943   7.690
 8097SOL    HW135630   4.127   0.982   7.648
 8097SOL    HW235631   4.018   0.861   7.641
 8098SOL     OW35632   4.185   1.266   9.175
 8098SOL    HW135633   4.135   1.267   9.089
 8098SOL    HW235634   4.122   1.248   9.251
 8099SOL     OW35635   3.926   0.285   8.946
 8099SOL    HW135636   3.846   0.345   8.933
 8099SOL    HW235637   3.916   0.236   9.032
 8100SOL     OW35638   4.188   1.743   7.771
 8100SOL    HW135639   4.221   1.782   7.857
 8100SOL    HW235640   4.264   1.736   7.706
 8101SOL     OW35641   3.973   1.785   8.689
 8101SOL    HW135642   4.030   1.720   8.739
 8101SOL    HW235643   3.957   1.752   8.596
 8102SOL     OW35644   4.106   0.700   7.928
 8102SOL    HW135645   4.151   0.610   7.925
 8102SOL    HW235646   4.012   0.689   7.961
 8103SOL     OW35647   4.338   0.122   7.565
 8103SOL    HW135648   4.436   0.100   7.572
 8103SOL    HW235649   4.307   0.105   7.472
 8104SOL     OW35650   4.612   1.514   8.643
 8104SOL    HW135651   4.589   1.489   8.549
 8104SOL    HW235652   4.673   1.445   8.682
 8105SOL     OW35653   4.527   1.402   8.372
 8105SOL    HW135654   4.617   1.416   8.330
 8105SOL    HW235655   4.456   1.404   8.301
 8106SOL     OW35656   4.646   0.503   8.347
 8106SOL    HW135657   4.621   0.494   8.251
 8106SOL    HW235658   4.694   0.421   8.378
 8107SOL     OW35659   4.263   0.064   7.960
 8107SOL    HW135660   4.182   0.065   8.018
 8107SOL    HW235661   4.266   0.147   7.905
 8108SOL     OW35662   4.021   0.035   7.619
 8108SOL    HW135663   4.070   0.119   7.598
 8108SOL    HW235664   4.083  -0.030   7.664
 8109SOL     OW35665   4.659   0.236   7.928
 8109SOL    HW135666   4.611   0.277   7.850
 8109SOL    HW235667   4.758   0.234   7.909
 8110SOL     OW35668   4.951   1.570   8.241
 8110SOL    HW135669   4.972   1.644   8.176
 8110SOL    HW235670   5.019   1.570   8.314
 8111SOL     OW35671   4.183   1.152   8.189
 8111SOL    HW135672   4.112   1.125   8.254
 8111SOL    HW235673   4.157   1.124   8.096
 8112SOL     OW35674   4.756   0.549   7.464
 8112SOL    HW135675   4.715   0.631   7.425
 8112SOL    HW235676   4.820   0.575   7.537
 8113SOL     OW35677   3.802   0.556   8.834
 8113SOL    HW135678   3.894   0.555   8.793
 8113SOL    HW235679   3.796   0.630   8.901
 8114SOL     OW35680   4.285   0.222   8.595
 8114SOL    HW135681   4.323   0.138   8.632
 8114SOL    HW235682   4.197   0.241   8.639
 8115SOL     OW35683   4.590   0.454   8.090
 8115SOL    HW135684   4.558   0.526   8.028
 8115SOL    HW235685   4.614   0.373   8.037
 8116SOL     OW35686   4.741   0.039   8.201
 8116SOL    HW135687   4.669   0.044   8.132
 8116SOL    HW235688   4.717  -0.030   8.270
 8117SOL     OW35689   4.212   1.385   7.622
 8117SOL    HW135690   4.125   1.370   7.669
 8117SOL    HW235691   4.195   1.411   7.527
 8118SOL     OW35692   4.251   0.256   7.776
 8118SOL    HW135693   4.278   0.197   7.701
 8118SOL    HW235694   4.251   0.351   7.745
 8119SOL     OW35695   4.704   1.116   9.167
 8119SOL    HW135696   4.605   1.122   9.177
 8119SOL    HW235697   4.727   1.036   9.111
 8120SOL     OW35698   4.429   1.050   7.816
 8120SOL    HW135699   4.415   1.057   7.915
 8120SOL    HW235700   4.513   0.999   7.798
 8121SOL     OW35701   4.134   0.813   8.699
 8121SOL    HW135702   4.220   0.825   8.749
 8121SOL    HW235703   4.092   0.726   8.726
 8122SOL     OW35704   3.788   1.564   8.779
 8122SOL    HW135705   3.742   1.646   8.745
 8122SOL    HW235706   3.886   1.583   8.788
 8123SOL     OW35707   4.091   1.100   7.949
 8123SOL    HW135708   4.084   1.183   7.893
 8123SOL    HW235709   4.095   1.020   7.889
 8124SOL     OW35710   4.290   0.537   8.313
 8124SOL    HW135711   4.302   0.603   8.239
 8124SOL    HW235712   4.336   0.571   8.396
 8125SOL     OW35713   4.078   1.510   8.777
 8125SOL    HW135714   4.057   1.466   8.690
 8125SOL    HW235715   4.175   1.536   8.780
 8126SOL     OW35716   4.126   0.751   9.046
 8126SOL    HW135717   4.194   0.806   8.999
 8126SOL    HW235718   4.166   0.663   9.073
 8127SOL     OW35719   4.228   0.050   9.188
 8127SOL    HW135720   4.186  -0.007   9.118
 8127SOL    HW235721   4.162   0.119   9.220
 8128SOL     OW35722   4.297   0.870   8.477
 8128SOL    HW135723   4.341   0.959   8.468
 8128SOL    HW235724   4.234   0.870   8.554
 8129SOL     OW35725   4.933   0.525   7.723
 8129SOL    HW135726   4.946   0.441   7.777
 8129SOL    HW235727   4.904   0.599   7.783
 8130SOL     OW35728   4.031   0.213   8.679
 8130SOL    HW135729   4.008   0.250   8.769
 8130SOL    HW235730   4.001   0.118   8.673
 8131SOL     OW35731   3.761   1.310   8.730
 8131SOL    HW135732   3.814   1.261   8.798
 8131SOL    HW235733   3.783   1.408   8.735
 8132SOL     OW35734   4.456   0.634   8.512
 8132SOL    HW135735   4.515   0.608   8.436
 8132SOL    HW235736   4.428   0.730   8.501
 8133SOL     OW35737   4.031   0.063   8.066
 8133SOL    HW135738   4.020   0.157   8.099
 8133SOL    HW235739   4.026   0.000   8.143
 8134SOL     OW35740   4.747   0.766   8.414
 8134SOL    HW135741   4.762   0.787   8.510
 8134SOL    HW235742   4.717   0.671   8.405
 8135SOL     OW35743   4.704   1.573   9.148
 8135SOL    HW135744   4.684   1.617   9.060
 8135SOL    HW235745   4.743   1.482   9.132
 8136SOL     OW35746   4.074   0.898   9.252
 8136SOL    HW135747   4.150   0.942   9.300
 8136SOL    HW235748   4.109   0.851   9.170
 8137SOL     OW35749   4.043   0.810   8.397
 8137SOL    HW135750   4.136   0.846   8.402
 8137SOL    HW235751   4.037   0.725   8.449
 8138SOL     OW35752   4.063   0.509   8.454
 8138SOL    HW135753   4.011   0.426   8.437
 8138SOL    HW235754   4.140   0.514   8.390
 8139SOL     OW35755   3.732   1.326   7.648
 8139SOL    HW135756   3.639   1.347   7.617
 8139SOL    HW235757   3.742   1.227   7.661
 8140SOL     OW35758   3.812   1.801   8.375
 8140SOL    HW135759   3.770   1.715   8.348
 8140SOL    HW235760   3.906   1.804   8.341
 8141SOL     OW35761   4.228   1.568   8.358
 8141SOL    HW135762   4.294   1.642   8.367
 8141SOL    HW235763   4.272   1.489   8.316
 8142SOL     OW35764   4.726   0.796   8.686
 8142SOL    HW135765   4.767   0.764   8.772
 8142SOL    HW235766   4.630   0.769   8.683
 8143SOL     OW35767   3.764   0.544   8.562
 8143SOL    HW135768   3.849   0.511   8.521
 8143SOL    HW235769   3.777   0.559   8.660
 8144SOL     OW35770   3.913   0.520   9.170
 8144SOL    HW135771   3.972   0.480   9.100
 8144SOL    HW235772   3.855   0.591   9.129
 8145SOL     OW35773   4.539   0.572   7.773
 8145SOL    HW135774   4.546   0.483   7.727
 8145SOL    HW235775   4.445   0.606   7.765
 8146SOL     OW35776   3.976   1.564   9.192
 8146SOL    HW135777   3.946   1.621   9.268
 8146SOL    HW235778   3.969   1.467   9.218
 8147SOL     OW35779   4.395   0.464   8.717
 8147SOL    HW135780   4.361   0.375   8.687
 8147SOL    HW235781   4.421   0.518   8.637
 8148SOL     OW35782   4.654   1.678   8.913
 8148SOL    HW135783   4.630   1.660   8.818
 8148SOL    HW235784   4.684   1.772   8.923
 8149SOL     OW35785   4.197   0.500   7.639
 8149SOL    HW135786   4.258   0.580   7.643
 8149SOL    HW235787   4.102   0.531   7.646
 8150SOL     OW35788   3.883   1.137   8.914
 8150SOL    HW135789   3.905   1.076   8.990
 8150SOL    HW235790   3.893   1.088   8.828
 8151SOL     OW35791   3.807   1.258   8.470
 8151SOL    HW135792   3.802   1.257   8.570
 8151SOL    HW235793   3.724   1.217   8.432
 8152SOL     OW35794   4.412   1.662   9.164
 8152SOL    HW135795   4.356   1.743   9.173
 8152SOL    HW235796   4.464   1.666   9.078
 8153SOL     OW35797   3.854   1.794   9.299
 8153SOL    HW135798   3.813   1.720   9.352
 8153SOL    HW235799   3.918   1.845   9.357
 8154SOL     OW35800   5.004   0.927   8.120
 8154SOL    HW135801   5.064   0.846   8.122
 8154SOL    HW235802   5.044   0.996   8.060
 8155SOL     OW35803   4.554   1.273   8.870
 8155SOL    HW135804   4.549   1.306   8.965
 8155SOL    HW235805   4.468   1.292   8.824
 8156SOL     OW35806   4.396   1.616   7.602
 8156SOL    HW135807   4.405   1.626   7.503
 8156SOL    HW235808   4.356   1.527   7.623
 8157SOL     OW35809   3.987   0.326   8.168
 8157SOL    HW135810   3.908   0.377   8.134
 8157SOL    HW235811   3.978   0.311   8.266
 8158SOL     OW35812   4.546   1.002   8.820
 8158SOL    HW135813   4.586   1.001   8.728
 8158SOL    HW235814   4.556   1.094   8.860
 8159SOL     OW35815   4.640   0.910   7.739
 8159SOL    HW135816   4.703   0.948   7.671
 8159SOL    HW235817   4.680   0.827   7.778
 8160SOL     OW35818   4.096   1.288   8.938
 8160SOL    HW135819   4.083   1.381   8.904
 8160SOL    HW235820   4.012   1.236   8.925
 8161SOL     OW35821   4.763   1.098   8.144
 8161SOL    HW135822   4.693   1.051   8.198
 8161SOL    HW235823   4.822   1.030   8.101
 8162SOL     OW35824   4.738   0.236   8.419
 8162SOL    HW135825   4.730   0.200   8.326
 8162SOL    HW235826   4.736   0.160   8.484
 8163SOL     OW35827   4.314   1.487   7.939
 8163SOL    HW135828   4.356   1.429   7.869
 8163SOL    HW235829   4.270   1.566   7.895
 8164SOL     OW35830   3.979   1.348   7.738
 8164SOL    HW135831   3.883   1.349   7.711
 8164SOL    HW235832   3.991   1.401   7.822
 8165SOL     OW35833   3.829   1.013   9.174
 8165SOL    HW135834   3.752   0.980   9.228
 8165SOL    HW235835   3.914   0.983   9.216
 8166SOL     OW35836   4.396   0.203   8.937
 8166SOL    HW135837   4.486   0.187   8.897
 8166SOL    HW235838   4.404   0.208   9.036
 8167SOL     OW35839   3.799   0.345   7.481
 8167SOL    HW135840   3.707   0.317   7.452
 8167SOL    HW235841   3.830   0.422   7.425
 8168SOL     OW35842   3.796   0.166   7.766
 8168SOL    HW135843   3.779   0.249   7.712
 8168SOL    HW235844   3.886   0.129   7.744
 8169SOL     OW35845   4.337   0.842   8.879
 8169SOL    HW135846   4.393   0.923   8.862
 8169SOL    HW235847   4.396   0.762   8.882
 8170SOL     OW35848   4.440   0.565   9.156
 8170SOL    HW135849   4.459   0.630   9.230
 8170SOL    HW235850   4.500   0.485   9.165
 8171SOL     OW35851   4.114   1.741   9.008
 8171SOL    HW135852   4.023   1.782   9.006
 8171SOL    HW235853   4.107   1.647   9.040
 8172SOL     OW35854   4.949   0.325   7.897
 8172SOL    HW135855   5.014   0.251   7.886
 8172SOL    HW235856   4.969   0.375   7.981
 8173SOL     OW35857   4.318   0.745   8.100
 8173SOL    HW135858   4.368   0.830   8.081
 8173SOL    HW235859   4.230   0.747   8.052
 8174SOL     OW35860   4.583   1.374   7.464
 8174SOL    HW135861   4.537   1.389   7.552
 8174SOL    HW235862   4.627   1.459   7.434
 8175SOL     OW35863   4.385   1.790   8.401
 8175SOL    HW135864   4.339   1.878   8.388
 8175SOL    HW235865   4.484   1.802   8.394
 8176SOL     OW35866   4.583   0.956   8.309
 8176SOL    HW135867   4.637   0.887   8.357
 8176SOL    HW235868   4.551   1.025   8.375
 8177SOL     OW35869   3.945   1.314   9.292
 8177SOL    HW135870   3.880   1.241   9.271
 8177SOL    HW235871   3.949   1.328   9.390
 8178SOL     OW35872   3.803   1.240   8.101
 8178SOL    HW135873   3.802   1.193   8.189
 8178SOL    HW235874   3.885   1.212   8.050
 8179SOL     OW35875   4.396   1.391   9.072
 8179SOL    HW135876   4.318   1.341   9.110
 8179SOL    HW235877   4.393   1.486   9.103
 8180SOL     OW35878   4.152   0.424   7.968
 8180SOL    HW135879   4.182   0.352   7.906
 8180SOL    HW235880   4.113   0.384   8.051
 8181SOL     OW35881   4.041   0.547   8.728
 8181SOL    HW135882   4.079   0.488   8.800
 8181SOL    HW235883   4.081   0.521   8.640
 8182SOL     OW35884   4.536   1.586   8.135
 8182SOL    HW135885   4.568   1.596   8.041
 8182SOL    HW235886   4.457   1.524   8.137
 8183SOL     OW35887   4.725   0.034   8.602
 8183SOL    HW135888   4.662  -0.038   8.571
 8183SOL    HW235889   4.818  -0.002   8.602
 8184SOL     OW35890   4.494   1.330   7.749
 8184SOL    HW135891   4.448   1.243   7.766
 8184SOL    HW235892   4.585   1.327   7.790
 8185SOL     OW35893   4.342   1.567   8.732
 8185SOL    HW135894   4.337   1.649   8.789
 8185SOL    HW235895   4.431   1.564   8.687
 8186SOL     OW35896   3.763   1.077   7.748
 8186SOL    HW135897   3.862   1.066   7.739
 8186SOL    HW235898   3.723   0.991   7.780
 8187SOL     OW35899   4.599   1.646   7.785
 8187SOL    HW135900   4.522   1.611   7.731
 8187SOL    HW235901   4.567   1.717   7.847
 8188SOL     OW35902   3.954   0.628   9.423
 8188SOL    HW135903   3.861   0.626   9.460
 8188SOL    HW235904   3.955   0.589   9.331
 8189SOL     OW35905   3.949   0.275  10.306
 8189SOL    HW135906   3.984   0.258  10.398
 8189SOL    HW235907   3.861   0.230  10.294
 8190SOL     OW35908   3.743   0.368   9.957
 8190SOL    HW135909   3.661   0.411   9.996
 8190SOL    HW235910   3.715   0.295   9.894
 8191SOL     OW35911   4.492   1.144  10.333
 8191SOL    HW135912   4.414   1.161  10.393
 8191SOL    HW235913   4.526   1.231  10.297
 8192SOL     OW35914   4.409   1.012   9.975
 8192SOL    HW135915   4.478   0.996  10.045
 8192SOL    HW235916   4.336   1.069  10.013
 8193SOL     OW35917   4.162   0.392  10.809
 8193SOL    HW135918   4.244   0.336  10.818
 8193SOL    HW235919   4.081   0.334  10.813
 8194SOL     OW35920   3.955   1.713   9.793
 8194SOL    HW135921   3.989   1.790   9.847
 8194SOL    HW235922   3.999   1.713   9.703
 8195SOL     OW35923   3.954   1.434   9.848
 8195SOL    HW135924   3.928   1.530   9.848
 8195SOL    HW235925   3.883   1.380   9.893
 8196SOL     OW35926   3.964   1.091  10.196
 8196SOL    HW135927   3.978   1.007  10.248
 8196SOL    HW235928   3.909   1.155  10.251
 8197SOL     OW35929   4.330   0.964   9.433
 8197SOL    HW135930   4.337   1.048   9.379
 8197SOL    HW235931   4.376   0.977   9.521
 8198SOL     OW35932   3.846   0.643   9.873
 8198SOL    HW135933   3.801   0.555   9.890
 8198SOL    HW235934   3.845   0.697   9.957
 8199SOL     OW35935   3.751   1.596   9.427
 8199SOL    HW135936   3.732   1.500   9.448
 8199SOL    HW235937   3.718   1.654   9.502
 8200SOL     OW35938   3.837   0.737  10.907
 8200SOL    HW135939   3.925   0.724  10.952
 8200SOL    HW235940   3.824   0.834  10.885
 8201SOL     OW35941   4.337   1.365  10.036
 8201SOL    HW135942   4.288   1.278  10.045
 8201SOL    HW235943   4.314   1.408   9.949
 8202SOL     OW35944   4.533   0.004   9.812
 8202SOL    HW135945   4.573   0.095   9.803
 8202SOL    HW235946   4.433   0.012   9.818
 8203SOL     OW35947   3.921   0.976  10.574
 8203SOL    HW135948   4.010   0.931  10.560
 8203SOL    HW235949   3.848   0.911  10.555
 8204SOL     OW35950   4.041   0.251  11.111
 8204SOL    HW135951   4.112   0.322  11.117
 8204SOL    HW235952   3.953   0.290  11.139
 8205SOL     OW35953   4.322   0.729   9.580
 8205SOL    HW135954   4.346   0.798   9.512
 8205SOL    HW235955   4.244   0.762   9.634
 8206SOL     OW35956   4.531   0.605  10.775
 8206SOL    HW135957   4.484   0.602  10.864
 8206SOL    HW235958   4.480   0.550  10.709
 8207SOL     OW35959   4.697   0.890  10.882
 8207SOL    HW135960   4.743   0.806  10.853
 8207SOL    HW235961   4.641   0.924  10.807
 8208SOL     OW35962   4.715   0.410  10.552
 8208SOL    HW135963   4.638   0.444  10.606
 8208SOL    HW235964   4.681   0.359  10.473
 8209SOL     OW35965   3.800   0.811  10.099
 8209SOL    HW135966   3.899   0.799  10.108
 8209SOL    HW235967   3.776   0.906  10.120
 8210SOL     OW35968   4.589   0.348   9.505
 8210SOL    HW135969   4.648   0.411   9.456
 8210SOL    HW235970   4.608   0.254   9.476
 8211SOL     OW35971   4.274   0.196  10.195
 8211SOL    HW135972   4.269   0.191  10.295
 8211SOL    HW235973   4.276   0.292  10.166
 8212SOL     OW35974   4.732   1.456   9.787
 8212SOL    HW135975   4.686   1.528   9.735
 8212SOL    HW235976   4.728   1.476   9.885
 8213SOL     OW35977   4.045   0.943   9.552
 8213SOL    HW135978   4.127   0.982   9.510
 8213SOL    HW235979   4.018   0.861   9.503
 8214SOL     OW35980   3.926   0.285  10.808
 8214SOL    HW135981   3.846   0.345  10.795
 8214SOL    HW235982   3.916   0.236  10.894
 8215SOL     OW35983   4.188   1.743   9.633
 8215SOL    HW135984   4.221   1.782   9.719
 8215SOL    HW235985   4.264   1.736   9.568
 8216SOL     OW35986   4.106   0.700   9.790
 8216SOL    HW135987   4.151   0.610   9.787
 8216SOL    HW235988   4.012   0.689   9.823
 8217SOL     OW35989   4.527   1.402  10.234
 8217SOL    HW135990   4.617   1.416  10.192
 8217SOL    HW235991   4.456   1.404  10.163
 8218SOL     OW35992   4.646   0.503  10.209
 8218SOL    HW135993   4.621   0.494  10.113
 8218SOL    HW235994   4.694   0.421  10.240
 8219SOL     OW35995   4.263   0.064   9.822
 8219SOL    HW135996   4.182   0.065   9.880
 8219SOL    HW235997   4.266   0.147   9.767
 8220SOL     OW35998   4.021   0.035   9.481
 8220SOL    HW135999   4.070   0.119   9.460
 8220SOL    HW236000   4.083  -0.030   9.526
 8221SOL     OW36001   4.659   0.236   9.790
 8221SOL    HW136002   4.611   0.277   9.712
 8221SOL    HW236003   4.758   0.234   9.771
 8222SOL     OW36004   4.951   1.570  10.103
 8222SOL    HW136005   4.972   1.644  10.038
 8222SOL    HW236006   5.019   1.570  10.176
 8223SOL     OW36007   4.183   1.152  10.051
 8223SOL    HW136008   4.112   1.125  10.116
 8223SOL    HW236009   4.157   1.124   9.958
 8224SOL     OW36010   4.756   0.549   9.326
 8224SOL    HW136011   4.715   0.631   9.287
 8224SOL    HW236012   4.820   0.575   9.399
 8225SOL     OW36013   3.802   0.556  10.696
 8225SOL    HW136014   3.894   0.555  10.655
 8225SOL    HW236015   3.796   0.630  10.763
 8226SOL     OW36016   4.285   0.222  10.457
 8226SOL    HW136017   4.323   0.138  10.494
 8226SOL    HW236018   4.197   0.241  10.501
 8227SOL     OW36019   4.590   0.454   9.952
 8227SOL    HW136020   4.558   0.526   9.890
 8227SOL    HW236021   4.614   0.373   9.899
 8228SOL     OW36022   4.741   0.039  10.063
 8228SOL    HW136023   4.669   0.044   9.994
 8228SOL    HW236024   4.717  -0.030  10.132
 8229SOL     OW36025   4.212   1.385   9.484
 8229SOL    HW136026   4.125   1.370   9.531
 8229SOL    HW236027   4.195   1.411   9.389
 8230SOL     OW36028   4.251   0.256   9.638
 8230SOL    HW136029   4.278   0.197   9.563
 8230SOL    HW236030   4.251   0.351   9.607
 8231SOL     OW36031   4.639   0.089  10.712
 8231SOL    HW136032   4.664   0.069  10.617
 8231SOL    HW236033   4.711   0.145  10.754
 8232SOL     OW36034   4.429   1.050   9.678
 8232SOL    HW136035   4.415   1.057   9.777
 8232SOL    HW236036   4.513   0.999   9.660
 8233SOL     OW36037   4.134   0.813  10.561
 8233SOL    HW136038   4.220   0.825  10.611
 8233SOL    HW236039   4.092   0.726  10.588
 8234SOL     OW36040   4.091   1.100   9.811
 8234SOL    HW136041   4.084   1.183   9.755
 8234SOL    HW236042   4.095   1.020   9.751
 8235SOL     OW36043   4.290   0.537  10.175
 8235SOL    HW136044   4.302   0.603  10.101
 8235SOL    HW236045   4.336   0.571  10.258
 8236SOL     OW36046   4.126   0.751  10.908
 8236SOL    HW136047   4.194   0.806  10.861
 8236SOL    HW236048   4.166   0.663  10.935
 8237SOL     OW36049   4.297   0.870  10.339
 8237SOL    HW136050   4.341   0.959  10.330
 8237SOL    HW236051   4.234   0.870  10.416
 8238SOL     OW36052   4.933   0.525   9.585
 8238SOL    HW136053   4.946   0.441   9.639
 8238SOL    HW236054   4.904   0.599   9.645
 8239SOL     OW36055   4.031   0.213  10.541
 8239SOL    HW136056   4.008   0.250  10.631
 8239SOL    HW236057   4.001   0.118  10.535
 8240SOL     OW36058   4.456   0.634  10.374
 8240SOL    HW136059   4.515   0.608  10.298
 8240SOL    HW236060   4.428   0.730  10.363
 8241SOL     OW36061   4.031   0.063   9.928
 8241SOL    HW136062   4.020   0.157   9.961
 8241SOL    HW236063   4.026   0.000  10.005
 8242SOL     OW36064   4.747   0.766  10.276
 8242SOL    HW136065   4.762   0.787  10.372
 8242SOL    HW236066   4.717   0.671  10.267
 8243SOL     OW36067   4.074   0.898  11.114
 8243SOL    HW136068   4.150   0.942  11.162
 8243SOL    HW236069   4.109   0.851  11.032
 8244SOL     OW36070   4.043   0.810  10.259
 8244SOL    HW136071   4.136   0.846  10.264
 8244SOL    HW236072   4.037   0.725  10.311
 8245SOL     OW36073   4.063   0.509  10.316
 8245SOL    HW136074   4.011   0.426  10.299
 8245SOL    HW236075   4.140   0.514  10.252
 8246SOL     OW36076   3.732   1.326   9.510
 8246SOL    HW136077   3.639   1.347   9.479
 8246SOL    HW236078   3.742   1.227   9.523
 8247SOL     OW36079   3.812   1.801  10.237
 8247SOL    HW136080   3.770   1.715  10.210
 8247SOL    HW236081   3.906   1.804  10.203
 8248SOL     OW36082   4.726   0.796  10.548
 8248SOL    HW136083   4.767   0.764  10.634
 8248SOL    HW236084   4.630   0.769  10.545
 8249SOL     OW36085   3.764   0.544  10.424
 8249SOL    HW136086   3.849   0.511  10.383
 8249SOL    HW236087   3.777   0.559  10.522
 8250SOL     OW36088   3.913   0.520  11.032
 8250SOL    HW136089   3.972   0.480  10.962
 8250SOL    HW236090   3.855   0.591  10.991
 8251SOL     OW36091   4.539   0.572   9.635
 8251SOL    HW136092   4.546   0.483   9.589
 8251SOL    HW236093   4.445   0.606   9.627
 8252SOL     OW36094   4.395   0.464  10.579
 8252SOL    HW136095   4.361   0.375  10.549
 8252SOL    HW236096   4.421   0.518  10.499
 8253SOL     OW36097   4.197   0.500   9.501
 8253SOL    HW136098   4.258   0.580   9.505
 8253SOL    HW236099   4.102   0.531   9.508
 8254SOL     OW36100   3.807   1.258  10.332
 8254SOL    HW136101   3.802   1.257  10.432
 8254SOL    HW236102   3.724   1.217  10.294
 8255SOL     OW36103   5.004   0.927   9.982
 8255SOL    HW136104   5.064   0.846   9.984
 8255SOL    HW236105   5.044   0.996   9.922
 8256SOL     OW36106   4.554   1.273  10.732
 8256SOL    HW136107   4.549   1.306  10.827
 8256SOL    HW236108   4.468   1.292  10.686
 8257SOL     OW36109   4.396   1.616   9.464
 8257SOL    HW136110   4.405   1.626   9.365
 8257SOL    HW236111   4.356   1.527   9.485
 8258SOL     OW36112   3.987   0.326  10.030
 8258SOL    HW136113   3.908   0.377   9.996
 8258SOL    HW236114   3.978   0.311  10.128
 8259SOL     OW36115   4.546   1.002  10.682
 8259SOL    HW136116   4.586   1.001  10.590
 8259SOL    HW236117   4.556   1.094  10.722
 8260SOL     OW36118   4.640   0.910   9.601
 8260SOL    HW136119   4.703   0.948   9.533
 8260SOL    HW236120   4.680   0.827   9.640
 8261SOL     OW36121   4.763   1.098  10.006
 8261SOL    HW136122   4.693   1.051  10.060
 8261SOL    HW236123   4.822   1.030   9.963
 8262SOL     OW36124   4.738   0.236  10.281
 8262SOL    HW136125   4.730   0.200  10.188
 8262SOL    HW236126   4.736   0.160  10.346
 8263SOL     OW36127   4.314   1.487   9.801
 8263SOL    HW136128   4.356   1.429   9.731
 8263SOL    HW236129   4.270   1.566   9.757
 8264SOL     OW36130   3.979   1.348   9.600
 8264SOL    HW136131   3.883   1.349   9.573
 8264SOL    HW236132   3.991   1.401   9.684
 8265SOL     OW36133   3.799   0.345   9.343
 8265SOL    HW136134   3.707   0.317   9.314
 8265SOL    HW236135   3.830   0.422   9.287
 8266SOL     OW36136   3.796   0.166   9.628
 8266SOL    HW136137   3.779   0.249   9.574
 8266SOL    HW236138   3.886   0.129   9.606
 8267SOL     OW36139   4.337   0.842  10.741
 8267SOL    HW136140   4.393   0.923  10.724
 8267SOL    HW236141   4.396   0.762  10.744
 8268SOL     OW36142   4.949   0.325   9.759
 8268SOL    HW136143   5.014   0.251   9.748
 8268SOL    HW236144   4.969   0.375   9.843
 8269SOL     OW36145   4.318   0.745   9.962
 8269SOL    HW136146   4.368   0.830   9.943
 8269SOL    HW236147   4.230   0.747   9.914
 8270SOL     OW36148   4.583   1.374   9.326
 8270SOL    HW136149   4.537   1.389   9.414
 8270SOL    HW236150   4.627   1.459   9.296
 8271SOL     OW36151   4.583   0.956  10.171
 8271SOL    HW136152   4.637   0.887  10.219
 8271SOL    HW236153   4.551   1.025  10.237
 8272SOL     OW36154   3.803   1.240   9.963
 8272SOL    HW136155   3.802   1.193  10.051
 8272SOL    HW236156   3.885   1.212   9.912
 8273SOL     OW36157   4.152   0.424   9.830
 8273SOL    HW136158   4.182   0.352   9.768
 8273SOL    HW236159   4.113   0.384   9.913
 8274SOL     OW36160   4.041   0.547  10.590
 8274SOL    HW136161   4.079   0.488  10.662
 8274SOL    HW236162   4.081   0.521  10.502
 8275SOL     OW36163   4.536   1.586   9.997
 8275SOL    HW136164   4.568   1.596   9.903
 8275SOL    HW236165   4.457   1.524   9.999
 8276SOL     OW36166   4.725   0.034  10.464
 8276SOL    HW136167   4.662  -0.038  10.433
 8276SOL    HW236168   4.818  -0.002  10.464
 8277SOL     OW36169   4.494   1.330   9.611
 8277SOL    HW136170   4.448   1.243   9.628
 8277SOL    HW236171   4.585   1.327   9.652
 8278SOL     OW36172   3.763   1.077   9.610
 8278SOL    HW136173   3.862   1.066   9.601
 8278SOL    HW236174   3.723   0.991   9.642
 8279SOL     OW36175   4.599   1.646   9.647
 8279SOL    HW136176   4.522   1.611   9.593
 8279SOL    HW236177   4.567   1.717   9.709
 8280SOL     OW36178   3.954   0.628  11.285
 8280SOL    HW136179   3.861   0.626  11.322
 8280SOL    HW236180   3.955   0.589  11.193
 8281SOL     OW36181   3.743   0.368  11.819
 8281SOL    HW136182   3.661   0.411  11.858
 8281SOL    HW236183   3.715   0.295  11.756
 8282SOL     OW36184   4.410   1.161  12.975
 8282SOL    HW136185   4.470   1.240  12.989
 8282SOL    HW236186   4.324   1.192  12.934
 8283SOL     OW36187   4.330   0.964  11.295
 8283SOL    HW136188   4.337   1.048  11.241
 8283SOL    HW236189   4.376   0.977  11.383
 8284SOL     OW36190   4.533   0.004  11.674
 8284SOL    HW136191   4.573   0.095  11.665
 8284SOL    HW236192   4.433   0.012  11.680
 8285SOL     OW36193   3.854   1.821  12.743
 8285SOL    HW136194   3.844   1.806  12.842
 8285SOL    HW236195   3.768   1.857  12.707
 8286SOL     OW36196   4.732   1.456  11.649
 8286SOL    HW136197   4.686   1.528  11.597
 8286SOL    HW236198   4.728   1.476  11.747
 8287SOL     OW36199   4.045   0.943  11.414
 8287SOL    HW136200   4.127   0.982  11.372
 8287SOL    HW236201   4.018   0.861  11.365
 8288SOL     OW36202   4.263   0.064  11.684
 8288SOL    HW136203   4.182   0.065  11.742
 8288SOL    HW236204   4.266   0.147  11.629
 8289SOL     OW36205   4.659   0.236  11.652
 8289SOL    HW136206   4.611   0.277  11.574
 8289SOL    HW236207   4.758   0.234  11.633
 8290SOL     OW36208   4.951   1.570  11.965
 8290SOL    HW136209   4.972   1.644  11.900
 8290SOL    HW236210   5.019   1.570  12.038
 8291SOL     OW36211   4.183   1.152  11.913
 8291SOL    HW136212   4.112   1.125  11.978
 8291SOL    HW236213   4.157   1.124  11.820
 8292SOL     OW36214   4.212   1.385  11.346
 8292SOL    HW136215   4.125   1.370  11.393
 8292SOL    HW236216   4.195   1.411  11.251
 8293SOL     OW36217   4.429   1.050  11.540
 8293SOL    HW136218   4.415   1.057  11.639
 8293SOL    HW236219   4.513   0.999  11.522
 8294SOL     OW36220   4.091   1.100  11.673
 8294SOL    HW136221   4.084   1.183  11.617
 8294SOL    HW236222   4.095   1.020  11.613
 8295SOL     OW36223   4.737   0.105  12.942
 8295SOL    HW136224   4.743   0.190  12.890
 8295SOL    HW236225   4.769   0.029  12.885
 8296SOL     OW36226   4.031   0.063  11.790
 8296SOL    HW136227   4.020   0.157  11.823
 8296SOL    HW236228   4.026   0.000  11.867
 8297SOL     OW36229   4.704   1.573  12.872
 8297SOL    HW136230   4.684   1.617  12.784
 8297SOL    HW236231   4.743   1.482  12.856
 8298SOL     OW36232   4.043   0.810  12.121
 8298SOL    HW136233   4.136   0.846  12.126
 8298SOL    HW236234   4.037   0.725  12.173
 8299SOL     OW36235   3.732   1.326  11.372
 8299SOL    HW136236   3.639   1.347  11.341
 8299SOL    HW236237   3.742   1.227  11.385
 8300SOL     OW36238   4.654   1.678  12.637
 8300SOL    HW136239   4.630   1.660  12.542
 8300SOL    HW236240   4.684   1.772  12.647
 8301SOL     OW36241   5.004   0.927  11.844
 8301SOL    HW136242   5.064   0.846  11.846
 8301SOL    HW236243   5.044   0.996  11.784
 8302SOL     OW36244   4.396   1.616  11.326
 8302SOL    HW136245   4.405   1.626  11.227
 8302SOL    HW236246   4.356   1.527  11.347
 8303SOL     OW36247   3.987   0.326  11.892
 8303SOL    HW136248   3.908   0.377  11.858
 8303SOL    HW236249   3.978   0.311  11.990
 8304SOL     OW36250   3.979   1.348  11.462
 8304SOL    HW136251   3.883   1.349  11.435
 8304SOL    HW236252   3.991   1.401  11.546
 8305SOL     OW36253   3.799   0.345  11.205
 8305SOL    HW136254   3.707   0.317  11.176
 8305SOL    HW236255   3.830   0.422  11.149
 8306SOL     OW36256   4.385   1.790  12.125
 8306SOL    HW136257   4.339   1.878  12.112
 8306SOL    HW236258   4.484   1.802  12.118
 8307SOL     OW36259   4.396   1.391  12.796
 8307SOL    HW136260   4.318   1.341  12.834
 8307SOL    HW236261   4.393   1.486  12.827
 8308SOL     OW36262   4.152   0.424  11.692
 8308SOL    HW136263   4.182   0.352  11.630
 8308SOL    HW236264   4.113   0.384  11.775
 8309SOL     OW36265   4.536   1.586  11.859
 8309SOL    HW136266   4.568   1.596  11.765
 8309SOL    HW236267   4.457   1.524  11.861
 8310SOL     OW36268   4.494   1.330  11.473
 8310SOL    HW136269   4.448   1.243  11.490
 8310SOL    HW236270   4.585   1.327  11.514
 8311SOL     OW36271   4.599   1.646  11.509
 8311SOL    HW136272   4.522   1.611  11.455
 8311SOL    HW236273   4.567   1.717  11.571
 8312SOL     OW36274   3.954   0.628  13.147
 8312SOL    HW136275   3.861   0.626  13.184
 8312SOL    HW236276   3.955   0.589  13.055
 8313SOL     OW36277   4.410   1.161  14.837
 8313SOL    HW136278   4.470   1.240  14.851
 8313SOL    HW236279   4.324   1.192  14.796
 8314SOL     OW36280   4.162   0.392  14.533
 8314SOL    HW136281   4.244   0.336  14.542
 8314SOL    HW236282   4.081   0.334  14.537
 8315SOL     OW36283   3.954   1.434  13.572
 8315SOL    HW136284   3.928   1.530  13.572
 8315SOL    HW236285   3.883   1.380  13.617
 8316SOL     OW36286   4.330   0.964  13.157
 8316SOL    HW136287   4.337   1.048  13.103
 8316SOL    HW236288   4.376   0.977  13.245
 8317SOL     OW36289   3.846   0.643  13.597
 8317SOL    HW136290   3.801   0.555  13.614
 8317SOL    HW236291   3.845   0.697  13.681
 8318SOL     OW36292   4.533   0.004  13.536
 8318SOL    HW136293   4.573   0.095  13.527
 8318SOL    HW236294   4.433   0.012  13.542
 8319SOL     OW36295   3.921   0.976  14.298
 8319SOL    HW136296   4.010   0.931  14.284
 8319SOL    HW236297   3.848   0.911  14.279
 8320SOL     OW36298   4.322   0.729  13.304
 8320SOL    HW136299   4.346   0.798  13.236
 8320SOL    HW236300   4.244   0.762  13.358
 8321SOL     OW36301   4.045   0.943  13.276
 8321SOL    HW136302   4.127   0.982  13.234
 8321SOL    HW236303   4.018   0.861  13.227
 8322SOL     OW36304   4.612   1.514  14.229
 8322SOL    HW136305   4.589   1.489  14.135
 8322SOL    HW236306   4.673   1.445  14.268
 8323SOL     OW36307   4.021   0.035  13.205
 8323SOL    HW136308   4.070   0.119  13.184
 8323SOL    HW236309   4.083  -0.030  13.250
 8324SOL     OW36310   4.183   1.152  13.775
 8324SOL    HW136311   4.112   1.125  13.840
 8324SOL    HW236312   4.157   1.124  13.682
 8325SOL     OW36313   4.212   1.385  13.208
 8325SOL    HW136314   4.125   1.370  13.255
 8325SOL    HW236315   4.195   1.411  13.113
 8326SOL     OW36316   4.251   0.256  13.362
 8326SOL    HW136317   4.278   0.197  13.287
 8326SOL    HW236318   4.251   0.351  13.331
 8327SOL     OW36319   4.429   1.050  13.402
 8327SOL    HW136320   4.415   1.057  13.501
 8327SOL    HW236321   4.513   0.999  13.384
 8328SOL     OW36322   4.091   1.100  13.535
 8328SOL    HW136323   4.084   1.183  13.479
 8328SOL    HW236324   4.095   1.020  13.475
 8329SOL     OW36325   4.737   0.105  14.804
 8329SOL    HW136326   4.743   0.190  14.752
 8329SOL    HW236327   4.769   0.029  14.747
 8330SOL     OW36328   4.031   0.063  13.652
 8330SOL    HW136329   4.020   0.157  13.685
 8330SOL    HW236330   4.026   0.000  13.729
 8331SOL     OW36331   4.654   1.678  14.499
 8331SOL    HW136332   4.630   1.660  14.404
 8331SOL    HW236333   4.684   1.772  14.509
 8332SOL     OW36334   4.197   0.500  13.225
 8332SOL    HW136335   4.258   0.580  13.229
 8332SOL    HW236336   4.102   0.531  13.232
 8333SOL     OW36337   4.738   0.236  14.005
 8333SOL    HW136338   4.730   0.200  13.912
 8333SOL    HW236339   4.736   0.160  14.070
 8334SOL     OW36340   3.799   0.345  13.067
 8334SOL    HW136341   3.707   0.317  13.038
 8334SOL    HW236342   3.830   0.422  13.011
 8335SOL     OW36343   3.796   0.166  13.352
 8335SOL    HW136344   3.779   0.249  13.298
 8335SOL    HW236345   3.886   0.129  13.330
 8336SOL     OW36346   4.583   1.374  13.050
 8336SOL    HW136347   4.537   1.389  13.138
 8336SOL    HW236348   4.627   1.459  13.020
 8337SOL     OW36349   4.041   0.547  14.314
 8337SOL    HW136350   4.079   0.488  14.386
 8337SOL    HW236351   4.081   0.521  14.226
 8338SOL     OW36352   3.763   1.077  13.334
 8338SOL    HW136353   3.862   1.066  13.325
 8338SOL    HW236354   3.723   0.991  13.366
 8339SOL     OW36355   4.574   0.798  16.720
 8339SOL    HW136356   4.570   0.874  16.785
 8339SOL    HW236357   4.596   0.834  16.629
 8340SOL     OW36358   4.162   0.392  16.396
 8340SOL    HW136359   4.244   0.336  16.405
 8340SOL    HW236360   4.081   0.334  16.400
 8341SOL     OW36361   3.954   1.434  15.434
 8341SOL    HW136362   3.928   1.530  15.434
 8341SOL    HW236363   3.883   1.380  15.479
 8342SOL     OW36364   3.964   1.091  15.782
 8342SOL    HW136365   3.978   1.007  15.834
 8342SOL    HW236366   3.909   1.155  15.837
 8343SOL     OW36367   3.846   0.643  15.459
 8343SOL    HW136368   3.801   0.555  15.476
 8343SOL    HW236369   3.845   0.697  15.543
 8344SOL     OW36370   4.533   0.004  15.398
 8344SOL    HW136371   4.573   0.095  15.389
 8344SOL    HW236372   4.433   0.012  15.404
 8345SOL     OW36373   3.921   0.976  16.161
 8345SOL    HW136374   4.010   0.931  16.147
 8345SOL    HW236375   3.848   0.911  16.142
 8346SOL     OW36376   4.531   0.605  16.362
 8346SOL    HW136377   4.484   0.602  16.451
 8346SOL    HW236378   4.480   0.550  16.296
 8347SOL     OW36379   4.697   0.890  16.469
 8347SOL    HW136380   4.743   0.806  16.440
 8347SOL    HW236381   4.641   0.924  16.394
 8348SOL     OW36382   3.800   0.811  15.685
 8348SOL    HW136383   3.899   0.799  15.694
 8348SOL    HW236384   3.776   0.906  15.706
 8349SOL     OW36385   4.589   0.348  15.091
 8349SOL    HW136386   4.648   0.411  15.042
 8349SOL    HW236387   4.608   0.254  15.062
 8350SOL     OW36388   3.973   1.785  16.138
 8350SOL    HW136389   4.030   1.720  16.188
 8350SOL    HW236390   3.957   1.752  16.045
 8351SOL     OW36391   4.646   0.503  15.795
 8351SOL    HW136392   4.621   0.494  15.699
 8351SOL    HW236393   4.694   0.421  15.826
 8352SOL     OW36394   4.659   0.236  15.376
 8352SOL    HW136395   4.611   0.277  15.298
 8352SOL    HW236396   4.758   0.234  15.357
 8353SOL     OW36397   4.590   0.454  15.538
 8353SOL    HW136398   4.558   0.526  15.476
 8353SOL    HW236399   4.614   0.373  15.485
 8354SOL     OW36400   4.212   1.385  15.070
 8354SOL    HW136401   4.125   1.370  15.117
 8354SOL    HW236402   4.195   1.411  14.975
 8355SOL     OW36403   4.134   0.813  16.148
 8355SOL    HW136404   4.220   0.825  16.198
 8355SOL    HW236405   4.092   0.726  16.175
 8356SOL     OW36406   4.126   0.751  16.495
 8356SOL    HW136407   4.194   0.806  16.448
 8356SOL    HW236408   4.166   0.663  16.522
 8357SOL     OW36409   4.933   0.525  15.171
 8357SOL    HW136410   4.946   0.441  15.225
 8357SOL    HW236411   4.904   0.599  15.231
 8358SOL     OW36412   4.456   0.634  15.961
 8358SOL    HW136413   4.515   0.608  15.885
 8358SOL    HW236414   4.428   0.730  15.950
 8359SOL     OW36415   4.043   0.810  15.846
 8359SOL    HW136416   4.136   0.846  15.851
 8359SOL    HW236417   4.037   0.725  15.898
 8360SOL     OW36418   4.063   0.509  15.903
 8360SOL    HW136419   4.011   0.426  15.886
 8360SOL    HW236420   4.140   0.514  15.839
 8361SOL     OW36421   3.732   1.326  15.096
 8361SOL    HW136422   3.639   1.347  15.065
 8361SOL    HW236423   3.742   1.227  15.109
 8362SOL     OW36424   3.812   1.801  15.823
 8362SOL    HW136425   3.770   1.715  15.796
 8362SOL    HW236426   3.906   1.804  15.789
 8363SOL     OW36427   3.764   0.544  16.011
 8363SOL    HW136428   3.849   0.511  15.970
 8363SOL    HW236429   3.777   0.559  16.109
 8364SOL     OW36430   3.976   1.564  16.641
 8364SOL    HW136431   3.946   1.621  16.717
 8364SOL    HW236432   3.969   1.467  16.667
 8365SOL     OW36433   3.807   1.258  15.919
 8365SOL    HW136434   3.802   1.257  16.019
 8365SOL    HW236435   3.724   1.217  15.881
 8366SOL     OW36436   3.854   1.794  16.748
 8366SOL    HW136437   3.813   1.720  16.801
 8366SOL    HW236438   3.918   1.845  16.806
 8367SOL     OW36439   3.987   0.326  15.616
 8367SOL    HW136440   3.908   0.377  15.582
 8367SOL    HW236441   3.978   0.311  15.714
 8368SOL     OW36442   4.314   1.487  15.387
 8368SOL    HW136443   4.356   1.429  15.317
 8368SOL    HW236444   4.270   1.566  15.343
 8369SOL     OW36445   3.979   1.348  15.186
 8369SOL    HW136446   3.883   1.349  15.159
 8369SOL    HW236447   3.991   1.401  15.270
 8370SOL     OW36448   4.337   0.842  16.328
 8370SOL    HW136449   4.393   0.923  16.311
 8370SOL    HW236450   4.396   0.762  16.331
 8371SOL     OW36451   4.440   0.565  16.605
 8371SOL    HW136452   4.459   0.630  16.679
 8371SOL    HW236453   4.500   0.485  16.614
 8372SOL     OW36454   4.949   0.325  15.345
 8372SOL    HW136455   5.014   0.251  15.334
 8372SOL    HW236456   4.969   0.375  15.429
 8373SOL     OW36457   3.803   1.240  15.549
 8373SOL    HW136458   3.802   1.193  15.637
 8373SOL    HW236459   3.885   1.212  15.498
 8374SOL     OW36460   4.152   0.424  15.416
 8374SOL    HW136461   4.182   0.352  15.354
 8374SOL    HW236462   4.113   0.384  15.499
 8375SOL     OW36463   4.041   0.547  16.177
 8375SOL    HW136464   4.079   0.488  16.249
 8375SOL    HW236465   4.081   0.521  16.089
 8376SOL     OW36466   4.494   1.330  15.197
 8376SOL    HW136467   4.448   1.243  15.214
 8376SOL    HW236468   4.585   1.327  15.238
 8377SOL     OW36469   3.743   0.368  17.406
 8377SOL    HW136470   3.661   0.411  17.445
 8377SOL    HW236471   3.715   0.295  17.343
 8378SOL     OW36472   3.955   1.713  17.242
 8378SOL    HW136473   3.989   1.790  17.296
 8378SOL    HW236474   3.999   1.713  17.152
 8379SOL     OW36475   4.330   0.964  16.882
 8379SOL    HW136476   4.337   1.048  16.828
 8379SOL    HW236477   4.376   0.977  16.970
 8380SOL     OW36478   3.846   0.643  17.322
 8380SOL    HW136479   3.801   0.555  17.339
 8380SOL    HW236480   3.845   0.697  17.406
 8381SOL     OW36481   3.751   1.596  16.876
 8381SOL    HW136482   3.732   1.500  16.897
 8381SOL    HW236483   3.718   1.654  16.951
 8382SOL     OW36484   4.337   1.365  17.485
 8382SOL    HW136485   4.288   1.278  17.494
 8382SOL    HW236486   4.314   1.408  17.398
 8383SOL     OW36487   4.322   0.729  17.029
 8383SOL    HW136488   4.346   0.798  16.961
 8383SOL    HW236489   4.244   0.762  17.083
 8384SOL     OW36490   4.732   1.456  17.236
 8384SOL    HW136491   4.686   1.528  17.184
 8384SOL    HW236492   4.728   1.476  17.334
 8385SOL     OW36493   3.973   1.785  18.000
 8385SOL    HW136494   4.030   1.720  18.050
 8385SOL    HW236495   3.957   1.752  17.907
 8386SOL     OW36496   4.106   0.700  17.239
 8386SOL    HW136497   4.151   0.610  17.236
 8386SOL    HW236498   4.012   0.689  17.272
 8387SOL     OW36499   4.756   0.549  16.775
 8387SOL    HW136500   4.715   0.631  16.736
 8387SOL    HW236501   4.820   0.575  16.848
 8388SOL     OW36502   4.741   0.039  17.512
 8388SOL    HW136503   4.669   0.044  17.443
 8388SOL    HW236504   4.717  -0.030  17.581
 8389SOL     OW36505   4.251   0.256  17.087
 8389SOL    HW136506   4.278   0.197  17.012
 8389SOL    HW236507   4.251   0.351  17.056
 8390SOL     OW36508   4.429   1.050  17.127
 8390SOL    HW136509   4.415   1.057  17.226
 8390SOL    HW236510   4.513   0.999  17.109
 8391SOL     OW36511   4.297   0.870  17.788
 8391SOL    HW136512   4.341   0.959  17.779
 8391SOL    HW236513   4.234   0.870  17.865
 8392SOL     OW36514   4.031   0.063  17.377
 8392SOL    HW136515   4.020   0.157  17.410
 8392SOL    HW236516   4.026   0.000  17.454
 8393SOL     OW36517   4.747   0.766  17.725
 8393SOL    HW136518   4.762   0.787  17.821
 8393SOL    HW236519   4.717   0.671  17.716
 8394SOL     OW36520   3.732   1.326  16.959
 8394SOL    HW136521   3.639   1.347  16.928
 8394SOL    HW236522   3.742   1.227  16.972
 8395SOL     OW36523   4.726   0.796  17.997
 8395SOL    HW136524   4.767   0.764  18.083
 8395SOL    HW236525   4.630   0.769  17.994
 8396SOL     OW36526   4.197   0.500  16.950
 8396SOL    HW136527   4.258   0.580  16.954
 8396SOL    HW236528   4.102   0.531  16.957
 8397SOL     OW36529   3.987   0.326  17.479
 8397SOL    HW136530   3.908   0.377  17.445
 8397SOL    HW236531   3.978   0.311  17.577
 8398SOL     OW36532   4.314   1.487  17.250
 8398SOL    HW136533   4.356   1.429  17.180
 8398SOL    HW236534   4.270   1.566  17.206
 8399SOL     OW36535   4.949   0.325  17.208
 8399SOL    HW136536   5.014   0.251  17.197
 8399SOL    HW236537   4.969   0.375  17.292
 8400SOL     OW36538   4.583   0.956  17.620
 8400SOL    HW136539   4.637   0.887  17.668
 8400SOL    HW236540   4.551   1.025  17.686
 8401SOL     OW36541   4.152   0.424  17.279
 8401SOL    HW136542   4.182   0.352  17.217
 8401SOL    HW236543   4.113   0.384  17.362
 8402SOL     OW36544   4.536   1.586  17.446
 8402SOL    HW136545   4.568   1.596  17.352
 8402SOL    HW236546   4.457   1.524  17.448
 8403SOL     OW36547   4.494   1.330  17.060
 8403SOL    HW136548   4.448   1.243  17.077
 8403SOL    HW236549   4.585   1.327  17.101
 8404SOL     OW36550   3.949   2.137   0.996
 8404SOL    HW136551   3.984   2.120   1.088
 8404SOL    HW236552   3.861   2.092   0.984
 8405SOL     OW36553   4.293   3.137   1.165
 8405SOL    HW136554   4.200   3.130   1.128
 8405SOL    HW236555   4.304   3.226   1.209
 8406SOL     OW36556   4.492   3.006   1.023
 8406SOL    HW136557   4.414   3.023   1.083
 8406SOL    HW236558   4.526   3.093   0.987
 8407SOL     OW36559   4.574   2.660   1.823
 8407SOL    HW136560   4.570   2.736   1.888
 8407SOL    HW236561   4.596   2.696   1.732
 8408SOL     OW36562   4.410   3.023   1.803
 8408SOL    HW136563   4.470   3.102   1.817
 8408SOL    HW236564   4.324   3.054   1.762
 8409SOL     OW36565   4.059   3.297   1.061
 8409SOL    HW136566   3.981   3.266   1.008
 8409SOL    HW236567   4.117   3.355   1.004
 8410SOL     OW36568   3.955   3.575   0.483
 8410SOL    HW136569   3.989   3.652   0.537
 8410SOL    HW236570   3.999   3.575   0.393
 8411SOL     OW36571   3.954   3.296   0.538
 8411SOL    HW136572   3.928   3.392   0.538
 8411SOL    HW236573   3.883   3.242   0.583
 8412SOL     OW36574   3.964   2.953   0.886
 8412SOL    HW136575   3.978   2.869   0.938
 8412SOL    HW236576   3.909   3.017   0.941
 8413SOL     OW36577   4.344   3.648   1.439
 8413SOL    HW136578   4.252   3.631   1.474
 8413SOL    HW236579   4.372   3.740   1.465
 8414SOL     OW36580   4.330   2.826   0.123
 8414SOL    HW136581   4.337   2.910   0.069
 8414SOL    HW236582   4.376   2.839   0.211
 8415SOL     OW36583   3.751   3.458   0.117
 8415SOL    HW136584   3.732   3.362   0.138
 8415SOL    HW236585   3.718   3.516   0.192
 8416SOL     OW36586   4.337   3.227   0.726
 8416SOL    HW136587   4.288   3.140   0.735
 8416SOL    HW236588   4.314   3.270   0.639
 8417SOL     OW36589   3.921   2.838   1.264
 8417SOL    HW136590   4.010   2.793   1.250
 8417SOL    HW236591   3.848   2.773   1.245
 8418SOL     OW36592   4.041   2.113   1.801
 8418SOL    HW136593   4.112   2.184   1.807
 8418SOL    HW236594   3.953   2.152   1.829
 8419SOL     OW36595   4.531   2.467   1.465
 8419SOL    HW136596   4.484   2.464   1.554
 8419SOL    HW236597   4.480   2.412   1.399
 8420SOL     OW36598   4.697   2.752   1.572
 8420SOL    HW136599   4.743   2.668   1.543
 8420SOL    HW236600   4.641   2.786   1.497
 8421SOL     OW36601   3.800   2.673   0.789
 8421SOL    HW136602   3.899   2.661   0.798
 8421SOL    HW236603   3.776   2.768   0.810
 8422SOL     OW36604   3.854   3.683   1.571
 8422SOL    HW136605   3.844   3.668   1.670
 8422SOL    HW236606   3.768   3.719   1.535
 8423SOL     OW36607   4.075   3.663   0.853
 8423SOL    HW136608   4.125   3.577   0.859
 8423SOL    HW236609   4.140   3.740   0.850
 8424SOL     OW36610   4.045   2.805   0.242
 8424SOL    HW136611   4.127   2.844   0.200
 8424SOL    HW236612   4.018   2.723   0.193
 8425SOL     OW36613   4.185   3.128   1.727
 8425SOL    HW136614   4.135   3.129   1.641
 8425SOL    HW236615   4.122   3.110   1.803
 8426SOL     OW36616   3.973   3.647   1.241
 8426SOL    HW136617   4.030   3.582   1.291
 8426SOL    HW236618   3.957   3.614   1.148
 8427SOL     OW36619   4.505   2.126   1.749
 8427SOL    HW136620   4.572   2.065   1.792
 8427SOL    HW236621   4.432   2.145   1.814
 8428SOL     OW36622   4.527   3.264   0.924
 8428SOL    HW136623   4.617   3.278   0.882
 8428SOL    HW236624   4.456   3.266   0.853
 8429SOL     OW36625   4.263   1.926   0.512
 8429SOL    HW136626   4.182   1.927   0.570
 8429SOL    HW236627   4.266   2.009   0.457
 8430SOL     OW36628   4.021   1.897   0.171
 8430SOL    HW136629   4.070   1.981   0.150
 8430SOL    HW236630   4.083   1.832   0.216
 8431SOL     OW36631   4.951   3.432   0.793
 8431SOL    HW136632   4.972   3.506   0.728
 8431SOL    HW236633   5.019   3.432   0.866
 8432SOL     OW36634   4.183   3.014   0.741
 8432SOL    HW136635   4.112   2.987   0.806
 8432SOL    HW236636   4.157   2.986   0.648
 8433SOL     OW36637   4.285   2.084   1.147
 8433SOL    HW136638   4.323   2.000   1.184
 8433SOL    HW236639   4.197   2.103   1.191
 8434SOL     OW36640   4.212   3.247   0.174
 8434SOL    HW136641   4.125   3.232   0.221
 8434SOL    HW236642   4.195   3.273   0.079
 8435SOL     OW36643   4.704   2.978   1.719
 8435SOL    HW136644   4.605   2.984   1.729
 8435SOL    HW236645   4.727   2.898   1.663
 8436SOL     OW36646   4.429   2.912   0.368
 8436SOL    HW136647   4.415   2.919   0.467
 8436SOL    HW236648   4.513   2.861   0.350
 8437SOL     OW36649   4.134   2.675   1.251
 8437SOL    HW136650   4.220   2.687   1.301
 8437SOL    HW236651   4.092   2.588   1.278
 8438SOL     OW36652   3.788   3.426   1.331
 8438SOL    HW136653   3.742   3.508   1.297
 8438SOL    HW236654   3.886   3.445   1.340
 8439SOL     OW36655   4.091   2.962   0.501
 8439SOL    HW136656   4.084   3.045   0.445
 8439SOL    HW236657   4.095   2.882   0.441
 8440SOL     OW36658   4.078   3.372   1.329
 8440SOL    HW136659   4.057   3.328   1.242
 8440SOL    HW236660   4.175   3.398   1.332
 8441SOL     OW36661   4.737   1.967   1.770
 8441SOL    HW136662   4.743   2.052   1.718
 8441SOL    HW236663   4.769   1.891   1.713
 8442SOL     OW36664   4.228   1.912   1.740
 8442SOL    HW136665   4.186   1.855   1.670
 8442SOL    HW236666   4.162   1.981   1.772
 8443SOL     OW36667   4.297   2.732   1.029
 8443SOL    HW136668   4.341   2.821   1.020
 8443SOL    HW236669   4.234   2.732   1.106
 8444SOL     OW36670   3.761   3.172   1.282
 8444SOL    HW136671   3.814   3.123   1.350
 8444SOL    HW236672   3.783   3.270   1.287
 8445SOL     OW36673   4.031   1.925   0.618
 8445SOL    HW136674   4.020   2.019   0.651
 8445SOL    HW236675   4.026   1.862   0.695
 8446SOL     OW36676   4.704   3.435   1.700
 8446SOL    HW136677   4.684   3.479   1.612
 8446SOL    HW236678   4.743   3.344   1.684
 8447SOL     OW36679   4.043   2.672   0.949
 8447SOL    HW136680   4.136   2.708   0.954
 8447SOL    HW236681   4.037   2.587   1.001
 8448SOL     OW36682   3.732   3.188   0.200
 8448SOL    HW136683   3.639   3.209   0.169
 8448SOL    HW236684   3.742   3.089   0.213
 8449SOL     OW36685   3.812   3.663   0.927
 8449SOL    HW136686   3.770   3.577   0.900
 8449SOL    HW236687   3.906   3.666   0.893
 8450SOL     OW36688   4.228   3.430   0.910
 8450SOL    HW136689   4.294   3.504   0.919
 8450SOL    HW236690   4.272   3.351   0.868
 8451SOL     OW36691   4.539   2.434   0.325
 8451SOL    HW136692   4.546   2.345   0.279
 8451SOL    HW236693   4.445   2.468   0.317
 8452SOL     OW36694   3.976   3.426   1.744
 8452SOL    HW136695   3.946   3.483   1.820
 8452SOL    HW236696   3.969   3.329   1.770
 8453SOL     OW36697   4.654   3.540   1.465
 8453SOL    HW136698   4.630   3.522   1.370
 8453SOL    HW236699   4.684   3.634   1.475
 8454SOL     OW36700   3.883   2.999   1.466
 8454SOL    HW136701   3.905   2.938   1.542
 8454SOL    HW236702   3.893   2.950   1.380
 8455SOL     OW36703   3.807   3.120   1.022
 8455SOL    HW136704   3.802   3.119   1.122
 8455SOL    HW236705   3.724   3.079   0.984
 8456SOL     OW36706   4.412   3.524   1.716
 8456SOL    HW136707   4.356   3.605   1.725
 8456SOL    HW236708   4.464   3.528   1.630
 8457SOL     OW36709   3.854   3.656   1.851
 8457SOL    HW136710   3.813   3.582   1.904
 8457SOL    HW236711   3.918   3.707   1.909
 8458SOL     OW36712   5.004   2.789   0.672
 8458SOL    HW136713   5.064   2.708   0.674
 8458SOL    HW236714   5.044   2.858   0.612
 8459SOL     OW36715   4.554   3.135   1.422
 8459SOL    HW136716   4.549   3.168   1.517
 8459SOL    HW236717   4.468   3.154   1.376
 8460SOL     OW36718   4.096   3.150   1.490
 8460SOL    HW136719   4.083   3.243   1.456
 8460SOL    HW236720   4.012   3.098   1.477
 8461SOL     OW36721   3.979   3.210   0.290
 8461SOL    HW136722   3.883   3.211   0.263
 8461SOL    HW236723   3.991   3.263   0.374
 8462SOL     OW36724   3.829   2.875   1.726
 8462SOL    HW136725   3.752   2.842   1.780
 8462SOL    HW236726   3.914   2.845   1.768
 8463SOL     OW36727   4.396   2.065   1.489
 8463SOL    HW136728   4.486   2.049   1.449
 8463SOL    HW236729   4.404   2.070   1.588
 8464SOL     OW36730   4.337   2.704   1.431
 8464SOL    HW136731   4.393   2.785   1.414
 8464SOL    HW236732   4.396   2.624   1.434
 8465SOL     OW36733   4.440   2.427   1.708
 8465SOL    HW136734   4.459   2.492   1.782
 8465SOL    HW236735   4.500   2.347   1.717
 8466SOL     OW36736   4.114   3.603   1.560
 8466SOL    HW136737   4.023   3.644   1.558
 8466SOL    HW236738   4.107   3.509   1.592
 8467SOL     OW36739   4.385   3.652   0.953
 8467SOL    HW136740   4.339   3.740   0.940
 8467SOL    HW236741   4.484   3.664   0.946
 8468SOL     OW36742   3.945   3.176   1.844
 8468SOL    HW136743   3.880   3.103   1.823
 8468SOL    HW236744   3.949   3.190   1.942
 8469SOL     OW36745   3.803   3.102   0.653
 8469SOL    HW136746   3.802   3.055   0.741
 8469SOL    HW236747   3.885   3.074   0.602
 8470SOL     OW36748   4.396   3.253   1.624
 8470SOL    HW136749   4.318   3.203   1.662
 8470SOL    HW236750   4.393   3.348   1.655
 8471SOL     OW36751   4.152   2.286   0.520
 8471SOL    HW136752   4.182   2.214   0.458
 8471SOL    HW236753   4.113   2.246   0.603
 8472SOL     OW36754   4.536   3.448   0.687
 8472SOL    HW136755   4.568   3.458   0.593
 8472SOL    HW236756   4.457   3.386   0.689
 8473SOL     OW36757   4.342   3.429   1.284
 8473SOL    HW136758   4.337   3.511   1.341
 8473SOL    HW236759   4.431   3.426   1.239
 8474SOL     OW36760   3.763   2.939   0.300
 8474SOL    HW136761   3.862   2.928   0.291
 8474SOL    HW236762   3.723   2.853   0.332
 8475SOL     OW36763   3.949   2.137   2.858
 8475SOL    HW136764   3.984   2.120   2.950
 8475SOL    HW236765   3.861   2.092   2.846
 8476SOL     OW36766   3.743   2.230   2.509
 8476SOL    HW136767   3.661   2.273   2.548
 8476SOL    HW236768   3.715   2.157   2.446
 8477SOL     OW36769   4.293   3.137   3.027
 8477SOL    HW136770   4.200   3.130   2.990
 8477SOL    HW236771   4.304   3.226   3.071
 8478SOL     OW36772   4.492   3.006   2.885
 8478SOL    HW136773   4.414   3.023   2.945
 8478SOL    HW236774   4.526   3.093   2.849
 8479SOL     OW36775   4.574   2.660   3.685
 8479SOL    HW136776   4.570   2.736   3.750
 8479SOL    HW236777   4.596   2.696   3.594
 8480SOL     OW36778   4.409   2.874   2.527
 8480SOL    HW136779   4.478   2.858   2.597
 8480SOL    HW236780   4.336   2.931   2.565
 8481SOL     OW36781   4.410   3.023   3.665
 8481SOL    HW136782   4.470   3.102   3.679
 8481SOL    HW236783   4.324   3.054   3.624
 8482SOL     OW36784   4.059   3.297   2.923
 8482SOL    HW136785   3.981   3.266   2.870
 8482SOL    HW236786   4.117   3.355   2.866
 8483SOL     OW36787   4.162   2.254   3.361
 8483SOL    HW136788   4.244   2.198   3.370
 8483SOL    HW236789   4.081   2.196   3.365
 8484SOL     OW36790   3.955   3.575   2.345
 8484SOL    HW136791   3.989   3.652   2.399
 8484SOL    HW236792   3.999   3.575   2.255
 8485SOL     OW36793   3.954   3.296   2.400
 8485SOL    HW136794   3.928   3.392   2.400
 8485SOL    HW236795   3.883   3.242   2.445
 8486SOL     OW36796   3.964   2.953   2.748
 8486SOL    HW136797   3.978   2.869   2.800
 8486SOL    HW236798   3.909   3.017   2.803
 8487SOL     OW36799   4.344   3.648   3.301
 8487SOL    HW136800   4.252   3.631   3.336
 8487SOL    HW236801   4.372   3.740   3.327
 8488SOL     OW36802   4.330   2.826   1.985
 8488SOL    HW136803   4.337   2.910   1.931
 8488SOL    HW236804   4.376   2.839   2.073
 8489SOL     OW36805   3.846   2.505   2.425
 8489SOL    HW136806   3.801   2.417   2.442
 8489SOL    HW236807   3.845   2.559   2.509
 8490SOL     OW36808   3.751   3.458   1.979
 8490SOL    HW136809   3.732   3.362   2.000
 8490SOL    HW236810   3.718   3.516   2.054
 8491SOL     OW36811   3.837   2.599   3.459
 8491SOL    HW136812   3.925   2.586   3.504
 8491SOL    HW236813   3.824   2.696   3.437
 8492SOL     OW36814   4.337   3.227   2.588
 8492SOL    HW136815   4.288   3.140   2.597
 8492SOL    HW236816   4.314   3.270   2.501
 8493SOL     OW36817   4.533   1.866   2.364
 8493SOL    HW136818   4.573   1.957   2.355
 8493SOL    HW236819   4.433   1.874   2.370
 8494SOL     OW36820   3.921   2.838   3.126
 8494SOL    HW136821   4.010   2.793   3.112
 8494SOL    HW236822   3.848   2.773   3.107
 8495SOL     OW36823   4.041   2.113   3.663
 8495SOL    HW136824   4.112   2.184   3.669
 8495SOL    HW236825   3.953   2.152   3.691
 8496SOL     OW36826   4.322   2.591   2.132
 8496SOL    HW136827   4.346   2.660   2.064
 8496SOL    HW236828   4.244   2.624   2.186
 8497SOL     OW36829   4.531   2.467   3.327
 8497SOL    HW136830   4.484   2.464   3.416
 8497SOL    HW236831   4.480   2.412   3.261
 8498SOL     OW36832   4.697   2.752   3.434
 8498SOL    HW136833   4.743   2.668   3.405
 8498SOL    HW236834   4.641   2.786   3.359
 8499SOL     OW36835   4.715   2.272   3.104
 8499SOL    HW136836   4.638   2.306   3.158
 8499SOL    HW236837   4.681   2.221   3.025
 8500SOL     OW36838   3.800   2.673   2.651
 8500SOL    HW136839   3.899   2.661   2.660
 8500SOL    HW236840   3.776   2.768   2.672
 8501SOL     OW36841   3.854   3.683   3.433
 8501SOL    HW136842   3.844   3.668   3.532
 8501SOL    HW236843   3.768   3.719   3.397
 8502SOL     OW36844   4.589   2.210   2.057
 8502SOL    HW136845   4.648   2.273   2.008
 8502SOL    HW236846   4.608   2.116   2.028
 8503SOL     OW36847   4.274   2.058   2.747
 8503SOL    HW136848   4.269   2.053   2.847
 8503SOL    HW236849   4.276   2.154   2.718
 8504SOL     OW36850   4.732   3.318   2.339
 8504SOL    HW136851   4.686   3.390   2.287
 8504SOL    HW236852   4.728   3.338   2.437
 8505SOL     OW36853   4.075   3.663   2.715
 8505SOL    HW136854   4.125   3.577   2.721
 8505SOL    HW236855   4.140   3.740   2.712
 8506SOL     OW36856   4.185   3.128   3.589
 8506SOL    HW136857   4.135   3.129   3.503
 8506SOL    HW236858   4.122   3.110   3.665
 8507SOL     OW36859   3.926   2.147   3.360
 8507SOL    HW136860   3.846   2.207   3.347
 8507SOL    HW236861   3.916   2.098   3.446
 8508SOL     OW36862   4.188   3.605   2.185
 8508SOL    HW136863   4.221   3.644   2.271
 8508SOL    HW236864   4.264   3.598   2.120
 8509SOL     OW36865   3.973   3.647   3.103
 8509SOL    HW136866   4.030   3.582   3.153
 8509SOL    HW236867   3.957   3.614   3.010
 8510SOL     OW36868   4.106   2.562   2.342
 8510SOL    HW136869   4.151   2.472   2.339
 8510SOL    HW236870   4.012   2.551   2.375
 8511SOL     OW36871   4.338   1.984   1.979
 8511SOL    HW136872   4.436   1.962   1.986
 8511SOL    HW236873   4.307   1.967   1.886
 8512SOL     OW36874   4.505   2.126   3.611
 8512SOL    HW136875   4.572   2.065   3.654
 8512SOL    HW236876   4.432   2.145   3.676
 8513SOL     OW36877   4.612   3.376   3.057
 8513SOL    HW136878   4.589   3.351   2.963
 8513SOL    HW236879   4.673   3.307   3.096
 8514SOL     OW36880   4.527   3.264   2.786
 8514SOL    HW136881   4.617   3.278   2.744
 8514SOL    HW236882   4.456   3.266   2.715
 8515SOL     OW36883   4.646   2.365   2.761
 8515SOL    HW136884   4.621   2.356   2.665
 8515SOL    HW236885   4.694   2.283   2.792
 8516SOL     OW36886   4.263   1.926   2.374
 8516SOL    HW136887   4.182   1.927   2.432
 8516SOL    HW236888   4.266   2.009   2.319
 8517SOL     OW36889   4.021   1.897   2.033
 8517SOL    HW136890   4.070   1.981   2.012
 8517SOL    HW236891   4.083   1.832   2.078
 8518SOL     OW36892   4.659   2.098   2.342
 8518SOL    HW136893   4.611   2.139   2.264
 8518SOL    HW236894   4.758   2.096   2.323
 8519SOL     OW36895   4.951   3.432   2.655
 8519SOL    HW136896   4.972   3.506   2.590
 8519SOL    HW236897   5.019   3.432   2.728
 8520SOL     OW36898   4.183   3.014   2.603
 8520SOL    HW136899   4.112   2.987   2.668
 8520SOL    HW236900   4.157   2.986   2.510
 8521SOL     OW36901   4.756   2.411   1.878
 8521SOL    HW136902   4.715   2.493   1.839
 8521SOL    HW236903   4.820   2.437   1.951
 8522SOL     OW36904   3.802   2.418   3.248
 8522SOL    HW136905   3.894   2.417   3.207
 8522SOL    HW236906   3.796   2.492   3.315
 8523SOL     OW36907   4.285   2.084   3.009
 8523SOL    HW136908   4.323   2.000   3.046
 8523SOL    HW236909   4.197   2.103   3.053
 8524SOL     OW36910   4.590   2.316   2.504
 8524SOL    HW136911   4.558   2.388   2.442
 8524SOL    HW236912   4.614   2.235   2.451
 8525SOL     OW36913   4.741   1.901   2.615
 8525SOL    HW136914   4.669   1.906   2.546
 8525SOL    HW236915   4.717   1.832   2.684
 8526SOL     OW36916   4.212   3.247   2.036
 8526SOL    HW136917   4.125   3.232   2.083
 8526SOL    HW236918   4.195   3.273   1.941
 8527SOL     OW36919   4.251   2.118   2.190
 8527SOL    HW136920   4.278   2.059   2.115
 8527SOL    HW236921   4.251   2.213   2.159
 8528SOL     OW36922   4.639   1.951   3.264
 8528SOL    HW136923   4.664   1.931   3.169
 8528SOL    HW236924   4.711   2.007   3.306
 8529SOL     OW36925   4.704   2.978   3.581
 8529SOL    HW136926   4.605   2.984   3.591
 8529SOL    HW236927   4.727   2.898   3.525
 8530SOL     OW36928   4.429   2.912   2.230
 8530SOL    HW136929   4.415   2.919   2.329
 8530SOL    HW236930   4.513   2.861   2.212
 8531SOL     OW36931   4.134   2.675   3.113
 8531SOL    HW136932   4.220   2.687   3.163
 8531SOL    HW236933   4.092   2.588   3.140
 8532SOL     OW36934   3.788   3.426   3.193
 8532SOL    HW136935   3.742   3.508   3.159
 8532SOL    HW236936   3.886   3.445   3.202
 8533SOL     OW36937   4.091   2.962   2.363
 8533SOL    HW136938   4.084   3.045   2.307
 8533SOL    HW236939   4.095   2.882   2.303
 8534SOL     OW36940   4.290   2.399   2.727
 8534SOL    HW136941   4.302   2.465   2.653
 8534SOL    HW236942   4.336   2.433   2.810
 8535SOL     OW36943   4.078   3.372   3.191
 8535SOL    HW136944   4.057   3.328   3.104
 8535SOL    HW236945   4.175   3.398   3.194
 8536SOL     OW36946   4.126   2.613   3.460
 8536SOL    HW136947   4.194   2.668   3.413
 8536SOL    HW236948   4.166   2.525   3.487
 8537SOL     OW36949   4.737   1.967   3.632
 8537SOL    HW136950   4.743   2.052   3.580
 8537SOL    HW236951   4.769   1.891   3.575
 8538SOL     OW36952   4.228   1.912   3.602
 8538SOL    HW136953   4.186   1.855   3.532
 8538SOL    HW236954   4.162   1.981   3.634
 8539SOL     OW36955   4.297   2.732   2.891
 8539SOL    HW136956   4.341   2.821   2.882
 8539SOL    HW236957   4.234   2.732   2.968
 8540SOL     OW36958   4.933   2.387   2.137
 8540SOL    HW136959   4.946   2.303   2.191
 8540SOL    HW236960   4.904   2.461   2.197
 8541SOL     OW36961   4.031   2.075   3.093
 8541SOL    HW136962   4.008   2.112   3.183
 8541SOL    HW236963   4.001   1.980   3.087
 8542SOL     OW36964   3.761   3.172   3.144
 8542SOL    HW136965   3.814   3.123   3.212
 8542SOL    HW236966   3.783   3.270   3.149
 8543SOL     OW36967   4.456   2.496   2.926
 8543SOL    HW136968   4.515   2.470   2.850
 8543SOL    HW236969   4.428   2.592   2.915
 8544SOL     OW36970   4.031   1.925   2.480
 8544SOL    HW136971   4.020   2.019   2.513
 8544SOL    HW236972   4.026   1.862   2.557
 8545SOL     OW36973   4.747   2.628   2.828
 8545SOL    HW136974   4.762   2.649   2.924
 8545SOL    HW236975   4.717   2.533   2.819
 8546SOL     OW36976   4.704   3.435   3.562
 8546SOL    HW136977   4.684   3.479   3.474
 8546SOL    HW236978   4.743   3.344   3.546
 8547SOL     OW36979   4.074   2.760   3.666
 8547SOL    HW136980   4.150   2.804   3.714
 8547SOL    HW236981   4.109   2.713   3.584
 8548SOL     OW36982   4.043   2.672   2.811
 8548SOL    HW136983   4.136   2.708   2.816
 8548SOL    HW236984   4.037   2.587   2.863
 8549SOL     OW36985   4.063   2.371   2.868
 8549SOL    HW136986   4.011   2.288   2.851
 8549SOL    HW236987   4.140   2.376   2.804
 8550SOL     OW36988   3.812   3.663   2.789
 8550SOL    HW136989   3.770   3.577   2.762
 8550SOL    HW236990   3.906   3.666   2.755
 8551SOL     OW36991   4.228   3.430   2.772
 8551SOL    HW136992   4.294   3.504   2.781
 8551SOL    HW236993   4.272   3.351   2.730
 8552SOL     OW36994   3.764   2.406   2.976
 8552SOL    HW136995   3.849   2.373   2.935
 8552SOL    HW236996   3.777   2.421   3.074
 8553SOL     OW36997   3.913   2.382   3.584
 8553SOL    HW136998   3.972   2.342   3.514
 8553SOL    HW236999   3.855   2.453   3.543
 8554SOL     OW37000   4.539   2.434   2.187
 8554SOL    HW137001   4.546   2.345   2.141
 8554SOL    HW237002   4.445   2.468   2.179
 8555SOL     OW37003   3.976   3.426   3.606
 8555SOL    HW137004   3.946   3.483   3.682
 8555SOL    HW237005   3.969   3.329   3.632
 8556SOL     OW37006   4.395   2.326   3.131
 8556SOL    HW137007   4.361   2.237   3.101
 8556SOL    HW237008   4.421   2.380   3.051
 8557SOL     OW37009   4.654   3.540   3.327
 8557SOL    HW137010   4.630   3.522   3.232
 8557SOL    HW237011   4.684   3.634   3.337
 8558SOL     OW37012   4.197   2.362   2.053
 8558SOL    HW137013   4.258   2.442   2.057
 8558SOL    HW237014   4.102   2.393   2.060
 8559SOL     OW37015   3.883   2.999   3.328
 8559SOL    HW137016   3.905   2.938   3.404
 8559SOL    HW237017   3.893   2.950   3.242
 8560SOL     OW37018   3.807   3.120   2.884
 8560SOL    HW137019   3.802   3.119   2.984
 8560SOL    HW237020   3.724   3.079   2.846
 8561SOL     OW37021   4.412   3.524   3.578
 8561SOL    HW137022   4.356   3.605   3.587
 8561SOL    HW237023   4.464   3.528   3.492
 8562SOL     OW37024   3.854   3.656   3.713
 8562SOL    HW137025   3.813   3.582   3.766
 8562SOL    HW237026   3.918   3.707   3.771
 8563SOL     OW37027   5.004   2.789   2.534
 8563SOL    HW137028   5.064   2.708   2.536
 8563SOL    HW237029   5.044   2.858   2.474
 8564SOL     OW37030   4.554   3.135   3.284
 8564SOL    HW137031   4.549   3.168   3.379
 8564SOL    HW237032   4.468   3.154   3.238
 8565SOL     OW37033   4.396   3.478   2.016
 8565SOL    HW137034   4.405   3.488   1.917
 8565SOL    HW237035   4.356   3.389   2.037
 8566SOL     OW37036   3.987   2.188   2.582
 8566SOL    HW137037   3.908   2.239   2.548
 8566SOL    HW237038   3.978   2.173   2.680
 8567SOL     OW37039   4.546   2.864   3.234
 8567SOL    HW137040   4.586   2.863   3.142
 8567SOL    HW237041   4.556   2.956   3.274
 8568SOL     OW37042   4.640   2.772   2.153
 8568SOL    HW137043   4.703   2.810   2.085
 8568SOL    HW237044   4.680   2.689   2.192
 8569SOL     OW37045   4.096   3.150   3.352
 8569SOL    HW137046   4.083   3.243   3.318
 8569SOL    HW237047   4.012   3.098   3.339
 8570SOL     OW37048   4.763   2.960   2.558
 8570SOL    HW137049   4.693   2.913   2.612
 8570SOL    HW237050   4.822   2.892   2.515
 8571SOL     OW37051   4.738   2.098   2.833
 8571SOL    HW137052   4.730   2.062   2.740
 8571SOL    HW237053   4.736   2.022   2.898
 8572SOL     OW37054   4.314   3.349   2.353
 8572SOL    HW137055   4.356   3.291   2.283
 8572SOL    HW237056   4.270   3.428   2.309
 8573SOL     OW37057   3.979   3.210   2.152
 8573SOL    HW137058   3.883   3.211   2.125
 8573SOL    HW237059   3.991   3.263   2.236
 8574SOL     OW37060   3.829   2.875   3.588
 8574SOL    HW137061   3.752   2.842   3.642
 8574SOL    HW237062   3.914   2.845   3.630
 8575SOL     OW37063   4.396   2.065   3.351
 8575SOL    HW137064   4.486   2.049   3.311
 8575SOL    HW237065   4.404   2.070   3.450
 8576SOL     OW37066   3.796   2.028   2.180
 8576SOL    HW137067   3.779   2.111   2.126
 8576SOL    HW237068   3.886   1.991   2.158
 8577SOL     OW37069   4.337   2.704   3.293
 8577SOL    HW137070   4.393   2.785   3.276
 8577SOL    HW237071   4.396   2.624   3.296
 8578SOL     OW37072   4.440   2.427   3.570
 8578SOL    HW137073   4.459   2.492   3.644
 8578SOL    HW237074   4.500   2.347   3.579
 8579SOL     OW37075   4.114   3.603   3.422
 8579SOL    HW137076   4.023   3.644   3.420
 8579SOL    HW237077   4.107   3.509   3.454
 8580SOL     OW37078   4.949   2.187   2.311
 8580SOL    HW137079   5.014   2.113   2.300
 8580SOL    HW237080   4.969   2.237   2.395
 8581SOL     OW37081   4.318   2.607   2.514
 8581SOL    HW137082   4.368   2.692   2.495
 8581SOL    HW237083   4.230   2.609   2.466
 8582SOL     OW37084   4.583   3.236   1.878
 8582SOL    HW137085   4.537   3.251   1.966
 8582SOL    HW237086   4.627   3.321   1.848
 8583SOL     OW37087   4.385   3.652   2.815
 8583SOL    HW137088   4.339   3.740   2.802
 8583SOL    HW237089   4.484   3.664   2.808
 8584SOL     OW37090   4.583   2.818   2.723
 8584SOL    HW137091   4.637   2.749   2.771
 8584SOL    HW237092   4.551   2.887   2.789
 8585SOL     OW37093   3.945   3.176   3.706
 8585SOL    HW137094   3.880   3.103   3.685
 8585SOL    HW237095   3.949   3.190   3.804
 8586SOL     OW37096   3.803   3.102   2.515
 8586SOL    HW137097   3.802   3.055   2.603
 8586SOL    HW237098   3.885   3.074   2.464
 8587SOL     OW37099   4.396   3.253   3.486
 8587SOL    HW137100   4.318   3.203   3.524
 8587SOL    HW237101   4.393   3.348   3.517
 8588SOL     OW37102   4.152   2.286   2.382
 8588SOL    HW137103   4.182   2.214   2.320
 8588SOL    HW237104   4.113   2.246   2.465
 8589SOL     OW37105   4.041   2.409   3.142
 8589SOL    HW137106   4.079   2.350   3.214
 8589SOL    HW237107   4.081   2.383   3.054
 8590SOL     OW37108   4.536   3.448   2.549
 8590SOL    HW137109   4.568   3.458   2.455
 8590SOL    HW237110   4.457   3.386   2.551
 8591SOL     OW37111   4.725   1.896   3.016
 8591SOL    HW137112   4.662   1.824   2.985
 8591SOL    HW237113   4.818   1.860   3.016
 8592SOL     OW37114   4.494   3.192   2.163
 8592SOL    HW137115   4.448   3.105   2.180
 8592SOL    HW237116   4.585   3.189   2.204
 8593SOL     OW37117   4.342   3.429   3.146
 8593SOL    HW137118   4.337   3.511   3.203
 8593SOL    HW237119   4.431   3.426   3.101
 8594SOL     OW37120   4.599   3.508   2.199
 8594SOL    HW137121   4.522   3.473   2.145
 8594SOL    HW237122   4.567   3.579   2.261
 8595SOL     OW37123   3.954   2.490   3.837
 8595SOL    HW137124   3.861   2.488   3.874
 8595SOL    HW237125   3.955   2.451   3.745
 8596SOL     OW37126   3.949   2.137   4.720
 8596SOL    HW137127   3.984   2.120   4.812
 8596SOL    HW237128   3.861   2.092   4.708
 8597SOL     OW37129   3.743   2.230   4.371
 8597SOL    HW137130   3.661   2.273   4.410
 8597SOL    HW237131   3.715   2.157   4.308
 8598SOL     OW37132   4.293   3.137   4.889
 8598SOL    HW137133   4.200   3.130   4.852
 8598SOL    HW237134   4.304   3.226   4.933
 8599SOL     OW37135   4.492   3.006   4.747
 8599SOL    HW137136   4.414   3.023   4.807
 8599SOL    HW237137   4.526   3.093   4.711
 8600SOL     OW37138   4.574   2.660   5.547
 8600SOL    HW137139   4.570   2.736   5.612
 8600SOL    HW237140   4.596   2.696   5.456
 8601SOL     OW37141   4.409   2.874   4.389
 8601SOL    HW137142   4.478   2.858   4.459
 8601SOL    HW237143   4.336   2.931   4.427
 8602SOL     OW37144   4.410   3.023   5.527
 8602SOL    HW137145   4.470   3.102   5.541
 8602SOL    HW237146   4.324   3.054   5.486
 8603SOL     OW37147   4.059   3.297   4.785
 8603SOL    HW137148   3.981   3.266   4.732
 8603SOL    HW237149   4.117   3.355   4.728
 8604SOL     OW37150   4.162   2.254   5.223
 8604SOL    HW137151   4.244   2.198   5.232
 8604SOL    HW237152   4.081   2.196   5.227
 8605SOL     OW37153   3.955   3.575   4.207
 8605SOL    HW137154   3.989   3.652   4.261
 8605SOL    HW237155   3.999   3.575   4.117
 8606SOL     OW37156   3.954   3.296   4.262
 8606SOL    HW137157   3.928   3.392   4.262
 8606SOL    HW237158   3.883   3.242   4.307
 8607SOL     OW37159   3.964   2.953   4.610
 8607SOL    HW137160   3.978   2.869   4.662
 8607SOL    HW237161   3.909   3.017   4.665
 8608SOL     OW37162   4.344   3.648   5.163
 8608SOL    HW137163   4.252   3.631   5.198
 8608SOL    HW237164   4.372   3.740   5.189
 8609SOL     OW37165   4.330   2.826   3.847
 8609SOL    HW137166   4.337   2.910   3.793
 8609SOL    HW237167   4.376   2.839   3.935
 8610SOL     OW37168   3.846   2.505   4.287
 8610SOL    HW137169   3.801   2.417   4.304
 8610SOL    HW237170   3.845   2.559   4.371
 8611SOL     OW37171   3.751   3.458   3.841
 8611SOL    HW137172   3.732   3.362   3.862
 8611SOL    HW237173   3.718   3.516   3.916
 8612SOL     OW37174   3.837   2.599   5.321
 8612SOL    HW137175   3.925   2.586   5.366
 8612SOL    HW237176   3.824   2.696   5.299
 8613SOL     OW37177   4.337   3.227   4.450
 8613SOL    HW137178   4.288   3.140   4.459
 8613SOL    HW237179   4.314   3.270   4.363
 8614SOL     OW37180   4.533   1.866   4.226
 8614SOL    HW137181   4.573   1.957   4.217
 8614SOL    HW237182   4.433   1.874   4.232
 8615SOL     OW37183   3.921   2.838   4.988
 8615SOL    HW137184   4.010   2.793   4.974
 8615SOL    HW237185   3.848   2.773   4.969
 8616SOL     OW37186   4.041   2.113   5.525
 8616SOL    HW137187   4.112   2.184   5.531
 8616SOL    HW237188   3.953   2.152   5.553
 8617SOL     OW37189   4.322   2.591   3.994
 8617SOL    HW137190   4.346   2.660   3.926
 8617SOL    HW237191   4.244   2.624   4.048
 8618SOL     OW37192   4.531   2.467   5.189
 8618SOL    HW137193   4.484   2.464   5.278
 8618SOL    HW237194   4.480   2.412   5.123
 8619SOL     OW37195   4.697   2.752   5.296
 8619SOL    HW137196   4.743   2.668   5.267
 8619SOL    HW237197   4.641   2.786   5.221
 8620SOL     OW37198   4.715   2.272   4.966
 8620SOL    HW137199   4.638   2.306   5.020
 8620SOL    HW237200   4.681   2.221   4.887
 8621SOL     OW37201   3.800   2.673   4.513
 8621SOL    HW137202   3.899   2.661   4.522
 8621SOL    HW237203   3.776   2.768   4.534
 8622SOL     OW37204   3.854   3.683   5.295
 8622SOL    HW137205   3.844   3.668   5.394
 8622SOL    HW237206   3.768   3.719   5.259
 8623SOL     OW37207   4.589   2.210   3.919
 8623SOL    HW137208   4.648   2.273   3.870
 8623SOL    HW237209   4.608   2.116   3.890
 8624SOL     OW37210   4.274   2.058   4.609
 8624SOL    HW137211   4.269   2.053   4.709
 8624SOL    HW237212   4.276   2.154   4.580
 8625SOL     OW37213   4.732   3.318   4.201
 8625SOL    HW137214   4.686   3.390   4.149
 8625SOL    HW237215   4.728   3.338   4.299
 8626SOL     OW37216   4.075   3.663   4.577
 8626SOL    HW137217   4.125   3.577   4.583
 8626SOL    HW237218   4.140   3.740   4.574
 8627SOL     OW37219   4.045   2.805   3.966
 8627SOL    HW137220   4.127   2.844   3.924
 8627SOL    HW237221   4.018   2.723   3.917
 8628SOL     OW37222   4.185   3.128   5.451
 8628SOL    HW137223   4.135   3.129   5.365
 8628SOL    HW237224   4.122   3.110   5.527
 8629SOL     OW37225   3.926   2.147   5.222
 8629SOL    HW137226   3.846   2.207   5.209
 8629SOL    HW237227   3.916   2.098   5.308
 8630SOL     OW37228   4.188   3.605   4.047
 8630SOL    HW137229   4.221   3.644   4.133
 8630SOL    HW237230   4.264   3.598   3.982
 8631SOL     OW37231   3.973   3.647   4.965
 8631SOL    HW137232   4.030   3.582   5.015
 8631SOL    HW237233   3.957   3.614   4.872
 8632SOL     OW37234   4.106   2.562   4.204
 8632SOL    HW137235   4.151   2.472   4.201
 8632SOL    HW237236   4.012   2.551   4.237
 8633SOL     OW37237   4.338   1.984   3.841
 8633SOL    HW137238   4.436   1.962   3.848
 8633SOL    HW237239   4.307   1.967   3.748
 8634SOL     OW37240   4.505   2.126   5.473
 8634SOL    HW137241   4.572   2.065   5.516
 8634SOL    HW237242   4.432   2.145   5.538
 8635SOL     OW37243   4.612   3.376   4.919
 8635SOL    HW137244   4.589   3.351   4.825
 8635SOL    HW237245   4.673   3.307   4.958
 8636SOL     OW37246   4.527   3.264   4.648
 8636SOL    HW137247   4.617   3.278   4.606
 8636SOL    HW237248   4.456   3.266   4.577
 8637SOL     OW37249   4.646   2.365   4.623
 8637SOL    HW137250   4.621   2.356   4.527
 8637SOL    HW237251   4.694   2.283   4.654
 8638SOL     OW37252   4.263   1.926   4.236
 8638SOL    HW137253   4.182   1.927   4.294
 8638SOL    HW237254   4.266   2.009   4.181
 8639SOL     OW37255   4.021   1.897   3.895
 8639SOL    HW137256   4.070   1.981   3.874
 8639SOL    HW237257   4.083   1.832   3.940
 8640SOL     OW37258   4.659   2.098   4.204
 8640SOL    HW137259   4.611   2.139   4.126
 8640SOL    HW237260   4.758   2.096   4.185
 8641SOL     OW37261   4.951   3.432   4.517
 8641SOL    HW137262   4.972   3.506   4.452
 8641SOL    HW237263   5.019   3.432   4.590
 8642SOL     OW37264   4.183   3.014   4.465
 8642SOL    HW137265   4.112   2.987   4.530
 8642SOL    HW237266   4.157   2.986   4.372
 8643SOL     OW37267   4.756   2.411   3.740
 8643SOL    HW137268   4.715   2.493   3.701
 8643SOL    HW237269   4.820   2.437   3.813
 8644SOL     OW37270   3.802   2.418   5.110
 8644SOL    HW137271   3.894   2.417   5.069
 8644SOL    HW237272   3.796   2.492   5.177
 8645SOL     OW37273   4.285   2.084   4.871
 8645SOL    HW137274   4.323   2.000   4.908
 8645SOL    HW237275   4.197   2.103   4.915
 8646SOL     OW37276   4.590   2.316   4.366
 8646SOL    HW137277   4.558   2.388   4.304
 8646SOL    HW237278   4.614   2.235   4.313
 8647SOL     OW37279   4.741   1.901   4.477
 8647SOL    HW137280   4.669   1.906   4.408
 8647SOL    HW237281   4.717   1.832   4.546
 8648SOL     OW37282   4.212   3.247   3.898
 8648SOL    HW137283   4.125   3.232   3.945
 8648SOL    HW237284   4.195   3.273   3.803
 8649SOL     OW37285   4.251   2.118   4.052
 8649SOL    HW137286   4.278   2.059   3.977
 8649SOL    HW237287   4.251   2.213   4.021
 8650SOL     OW37288   4.639   1.951   5.126
 8650SOL    HW137289   4.664   1.931   5.031
 8650SOL    HW237290   4.711   2.007   5.168
 8651SOL     OW37291   4.704   2.978   5.443
 8651SOL    HW137292   4.605   2.984   5.453
 8651SOL    HW237293   4.727   2.898   5.387
 8652SOL     OW37294   4.429   2.912   4.092
 8652SOL    HW137295   4.415   2.919   4.191
 8652SOL    HW237296   4.513   2.861   4.074
 8653SOL     OW37297   4.134   2.675   4.975
 8653SOL    HW137298   4.220   2.687   5.025
 8653SOL    HW237299   4.092   2.588   5.002
 8654SOL     OW37300   3.788   3.426   5.055
 8654SOL    HW137301   3.742   3.508   5.021
 8654SOL    HW237302   3.886   3.445   5.064
 8655SOL     OW37303   4.091   2.962   4.225
 8655SOL    HW137304   4.084   3.045   4.169
 8655SOL    HW237305   4.095   2.882   4.165
 8656SOL     OW37306   4.290   2.399   4.589
 8656SOL    HW137307   4.302   2.465   4.515
 8656SOL    HW237308   4.336   2.433   4.672
 8657SOL     OW37309   4.078   3.372   5.053
 8657SOL    HW137310   4.057   3.328   4.966
 8657SOL    HW237311   4.175   3.398   5.056
 8658SOL     OW37312   4.126   2.613   5.322
 8658SOL    HW137313   4.194   2.668   5.275
 8658SOL    HW237314   4.166   2.525   5.349
 8659SOL     OW37315   4.737   1.967   5.494
 8659SOL    HW137316   4.743   2.052   5.442
 8659SOL    HW237317   4.769   1.891   5.437
 8660SOL     OW37318   4.228   1.912   5.464
 8660SOL    HW137319   4.186   1.855   5.394
 8660SOL    HW237320   4.162   1.981   5.496
 8661SOL     OW37321   4.297   2.732   4.753
 8661SOL    HW137322   4.341   2.821   4.744
 8661SOL    HW237323   4.234   2.732   4.830
 8662SOL     OW37324   4.933   2.387   3.999
 8662SOL    HW137325   4.946   2.303   4.053
 8662SOL    HW237326   4.904   2.461   4.059
 8663SOL     OW37327   4.031   2.075   4.955
 8663SOL    HW137328   4.008   2.112   5.045
 8663SOL    HW237329   4.001   1.980   4.949
 8664SOL     OW37330   3.761   3.172   5.006
 8664SOL    HW137331   3.814   3.123   5.074
 8664SOL    HW237332   3.783   3.270   5.011
 8665SOL     OW37333   4.456   2.496   4.788
 8665SOL    HW137334   4.515   2.470   4.712
 8665SOL    HW237335   4.428   2.592   4.777
 8666SOL     OW37336   4.031   1.925   4.342
 8666SOL    HW137337   4.020   2.019   4.375
 8666SOL    HW237338   4.026   1.862   4.419
 8667SOL     OW37339   4.747   2.628   4.690
 8667SOL    HW137340   4.762   2.649   4.786
 8667SOL    HW237341   4.717   2.533   4.681
 8668SOL     OW37342   4.704   3.435   5.424
 8668SOL    HW137343   4.684   3.479   5.336
 8668SOL    HW237344   4.743   3.344   5.408
 8669SOL     OW37345   4.074   2.760   5.528
 8669SOL    HW137346   4.150   2.804   5.576
 8669SOL    HW237347   4.109   2.713   5.446
 8670SOL     OW37348   4.043   2.672   4.673
 8670SOL    HW137349   4.136   2.708   4.678
 8670SOL    HW237350   4.037   2.587   4.725
 8671SOL     OW37351   4.063   2.371   4.730
 8671SOL    HW137352   4.011   2.288   4.713
 8671SOL    HW237353   4.140   2.376   4.666
 8672SOL     OW37354   3.732   3.188   3.924
 8672SOL    HW137355   3.639   3.209   3.893
 8672SOL    HW237356   3.742   3.089   3.937
 8673SOL     OW37357   3.812   3.663   4.651
 8673SOL    HW137358   3.770   3.577   4.624
 8673SOL    HW237359   3.906   3.666   4.617
 8674SOL     OW37360   4.228   3.430   4.634
 8674SOL    HW137361   4.294   3.504   4.643
 8674SOL    HW237362   4.272   3.351   4.592
 8675SOL     OW37363   4.726   2.658   4.962
 8675SOL    HW137364   4.767   2.626   5.048
 8675SOL    HW237365   4.630   2.631   4.959
 8676SOL     OW37366   3.764   2.406   4.838
 8676SOL    HW137367   3.849   2.373   4.797
 8676SOL    HW237368   3.777   2.421   4.936
 8677SOL     OW37369   3.913   2.382   5.446
 8677SOL    HW137370   3.972   2.342   5.376
 8677SOL    HW237371   3.855   2.453   5.405
 8678SOL     OW37372   4.539   2.434   4.049
 8678SOL    HW137373   4.546   2.345   4.003
 8678SOL    HW237374   4.445   2.468   4.041
 8679SOL     OW37375   3.976   3.426   5.468
 8679SOL    HW137376   3.946   3.483   5.544
 8679SOL    HW237377   3.969   3.329   5.494
 8680SOL     OW37378   4.395   2.326   4.993
 8680SOL    HW137379   4.361   2.237   4.963
 8680SOL    HW237380   4.421   2.380   4.913
 8681SOL     OW37381   4.654   3.540   5.189
 8681SOL    HW137382   4.630   3.522   5.094
 8681SOL    HW237383   4.684   3.634   5.199
 8682SOL     OW37384   4.197   2.362   3.915
 8682SOL    HW137385   4.258   2.442   3.919
 8682SOL    HW237386   4.102   2.393   3.922
 8683SOL     OW37387   3.883   2.999   5.190
 8683SOL    HW137388   3.905   2.938   5.266
 8683SOL    HW237389   3.893   2.950   5.104
 8684SOL     OW37390   3.807   3.120   4.746
 8684SOL    HW137391   3.802   3.119   4.846
 8684SOL    HW237392   3.724   3.079   4.708
 8685SOL     OW37393   4.412   3.524   5.440
 8685SOL    HW137394   4.356   3.605   5.449
 8685SOL    HW237395   4.464   3.528   5.354
 8686SOL     OW37396   5.004   2.789   4.396
 8686SOL    HW137397   5.064   2.708   4.398
 8686SOL    HW237398   5.044   2.858   4.336
 8687SOL     OW37399   4.554   3.135   5.146
 8687SOL    HW137400   4.549   3.168   5.241
 8687SOL    HW237401   4.468   3.154   5.100
 8688SOL     OW37402   4.396   3.478   3.878
 8688SOL    HW137403   4.405   3.488   3.779
 8688SOL    HW237404   4.356   3.389   3.899
 8689SOL     OW37405   3.987   2.188   4.444
 8689SOL    HW137406   3.908   2.239   4.410
 8689SOL    HW237407   3.978   2.173   4.542
 8690SOL     OW37408   4.546   2.864   5.096
 8690SOL    HW137409   4.586   2.863   5.004
 8690SOL    HW237410   4.556   2.956   5.136
 8691SOL     OW37411   4.640   2.772   4.015
 8691SOL    HW137412   4.703   2.810   3.947
 8691SOL    HW237413   4.680   2.689   4.054
 8692SOL     OW37414   4.096   3.150   5.214
 8692SOL    HW137415   4.083   3.243   5.180
 8692SOL    HW237416   4.012   3.098   5.201
 8693SOL     OW37417   4.763   2.960   4.420
 8693SOL    HW137418   4.693   2.913   4.474
 8693SOL    HW237419   4.822   2.892   4.377
 8694SOL     OW37420   4.738   2.098   4.695
 8694SOL    HW137421   4.730   2.062   4.602
 8694SOL    HW237422   4.736   2.022   4.760
 8695SOL     OW37423   4.314   3.349   4.215
 8695SOL    HW137424   4.356   3.291   4.145
 8695SOL    HW237425   4.270   3.428   4.171
 8696SOL     OW37426   3.979   3.210   4.014
 8696SOL    HW137427   3.883   3.211   3.987
 8696SOL    HW237428   3.991   3.263   4.098
 8697SOL     OW37429   3.829   2.875   5.450
 8697SOL    HW137430   3.752   2.842   5.504
 8697SOL    HW237431   3.914   2.845   5.492
 8698SOL     OW37432   4.396   2.065   5.213
 8698SOL    HW137433   4.486   2.049   5.173
 8698SOL    HW237434   4.404   2.070   5.312
 8699SOL     OW37435   3.799   2.207   3.757
 8699SOL    HW137436   3.707   2.179   3.728
 8699SOL    HW237437   3.830   2.284   3.701
 8700SOL     OW37438   3.796   2.028   4.042
 8700SOL    HW137439   3.779   2.111   3.988
 8700SOL    HW237440   3.886   1.991   4.020
 8701SOL     OW37441   4.337   2.704   5.155
 8701SOL    HW137442   4.393   2.785   5.138
 8701SOL    HW237443   4.396   2.624   5.158
 8702SOL     OW37444   4.440   2.427   5.432
 8702SOL    HW137445   4.459   2.492   5.506
 8702SOL    HW237446   4.500   2.347   5.441
 8703SOL     OW37447   4.114   3.603   5.284
 8703SOL    HW137448   4.023   3.644   5.282
 8703SOL    HW237449   4.107   3.509   5.316
 8704SOL     OW37450   4.949   2.187   4.173
 8704SOL    HW137451   5.014   2.113   4.162
 8704SOL    HW237452   4.969   2.237   4.257
 8705SOL     OW37453   4.318   2.607   4.376
 8705SOL    HW137454   4.368   2.692   4.357
 8705SOL    HW237455   4.230   2.609   4.328
 8706SOL     OW37456   4.583   3.236   3.740
 8706SOL    HW137457   4.537   3.251   3.828
 8706SOL    HW237458   4.627   3.321   3.710
 8707SOL     OW37459   4.385   3.652   4.677
 8707SOL    HW137460   4.339   3.740   4.664
 8707SOL    HW237461   4.484   3.664   4.670
 8708SOL     OW37462   4.583   2.818   4.585
 8708SOL    HW137463   4.637   2.749   4.633
 8708SOL    HW237464   4.551   2.887   4.651
 8709SOL     OW37465   3.945   3.176   5.568
 8709SOL    HW137466   3.880   3.103   5.547
 8709SOL    HW237467   3.949   3.190   5.666
 8710SOL     OW37468   3.803   3.102   4.377
 8710SOL    HW137469   3.802   3.055   4.465
 8710SOL    HW237470   3.885   3.074   4.326
 8711SOL     OW37471   4.396   3.253   5.348
 8711SOL    HW137472   4.318   3.203   5.386
 8711SOL    HW237473   4.393   3.348   5.379
 8712SOL     OW37474   4.152   2.286   4.244
 8712SOL    HW137475   4.182   2.214   4.182
 8712SOL    HW237476   4.113   2.246   4.327
 8713SOL     OW37477   4.041   2.409   5.004
 8713SOL    HW137478   4.079   2.350   5.076
 8713SOL    HW237479   4.081   2.383   4.916
 8714SOL     OW37480   4.536   3.448   4.411
 8714SOL    HW137481   4.568   3.458   4.317
 8714SOL    HW237482   4.457   3.386   4.413
 8715SOL     OW37483   4.725   1.896   4.878
 8715SOL    HW137484   4.662   1.824   4.847
 8715SOL    HW237485   4.818   1.860   4.878
 8716SOL     OW37486   4.494   3.192   4.025
 8716SOL    HW137487   4.448   3.105   4.042
 8716SOL    HW237488   4.585   3.189   4.066
 8717SOL     OW37489   4.342   3.429   5.008
 8717SOL    HW137490   4.337   3.511   5.065
 8717SOL    HW237491   4.431   3.426   4.963
 8718SOL     OW37492   3.763   2.939   4.024
 8718SOL    HW137493   3.862   2.928   4.015
 8718SOL    HW237494   3.723   2.853   4.056
 8719SOL     OW37495   4.599   3.508   4.061
 8719SOL    HW137496   4.522   3.473   4.007
 8719SOL    HW237497   4.567   3.579   4.123
 8720SOL     OW37498   3.954   2.490   5.699
 8720SOL    HW137499   3.861   2.488   5.736
 8720SOL    HW237500   3.955   2.451   5.607
 8721SOL     OW37501   3.949   2.137   6.582
 8721SOL    HW137502   3.984   2.120   6.674
 8721SOL    HW237503   3.861   2.092   6.570
 8722SOL     OW37504   3.743   2.230   6.233
 8722SOL    HW137505   3.661   2.273   6.272
 8722SOL    HW237506   3.715   2.157   6.170
 8723SOL     OW37507   4.293   3.137   6.751
 8723SOL    HW137508   4.200   3.130   6.714
 8723SOL    HW237509   4.304   3.226   6.795
 8724SOL     OW37510   4.492   3.006   6.609
 8724SOL    HW137511   4.414   3.023   6.669
 8724SOL    HW237512   4.526   3.093   6.573
 8725SOL     OW37513   4.574   2.660   7.409
 8725SOL    HW137514   4.570   2.736   7.474
 8725SOL    HW237515   4.596   2.696   7.318
 8726SOL     OW37516   4.409   2.874   6.251
 8726SOL    HW137517   4.478   2.858   6.321
 8726SOL    HW237518   4.336   2.931   6.289
 8727SOL     OW37519   4.410   3.023   7.389
 8727SOL    HW137520   4.470   3.102   7.403
 8727SOL    HW237521   4.324   3.054   7.348
 8728SOL     OW37522   4.059   3.297   6.647
 8728SOL    HW137523   3.981   3.266   6.594
 8728SOL    HW237524   4.117   3.355   6.590
 8729SOL     OW37525   4.162   2.254   7.085
 8729SOL    HW137526   4.244   2.198   7.094
 8729SOL    HW237527   4.081   2.196   7.089
 8730SOL     OW37528   3.955   3.575   6.069
 8730SOL    HW137529   3.989   3.652   6.123
 8730SOL    HW237530   3.999   3.575   5.979
 8731SOL     OW37531   3.954   3.296   6.124
 8731SOL    HW137532   3.928   3.392   6.124
 8731SOL    HW237533   3.883   3.242   6.169
 8732SOL     OW37534   3.964   2.953   6.472
 8732SOL    HW137535   3.978   2.869   6.524
 8732SOL    HW237536   3.909   3.017   6.527
 8733SOL     OW37537   4.344   3.648   7.025
 8733SOL    HW137538   4.252   3.631   7.060
 8733SOL    HW237539   4.372   3.740   7.051
 8734SOL     OW37540   4.330   2.826   5.709
 8734SOL    HW137541   4.337   2.910   5.655
 8734SOL    HW237542   4.376   2.839   5.797
 8735SOL     OW37543   3.846   2.505   6.149
 8735SOL    HW137544   3.801   2.417   6.166
 8735SOL    HW237545   3.845   2.559   6.233
 8736SOL     OW37546   3.837   2.599   7.183
 8736SOL    HW137547   3.925   2.586   7.228
 8736SOL    HW237548   3.824   2.696   7.161
 8737SOL     OW37549   4.337   3.227   6.312
 8737SOL    HW137550   4.288   3.140   6.321
 8737SOL    HW237551   4.314   3.270   6.225
 8738SOL     OW37552   4.533   1.866   6.088
 8738SOL    HW137553   4.573   1.957   6.079
 8738SOL    HW237554   4.433   1.874   6.094
 8739SOL     OW37555   3.921   2.838   6.850
 8739SOL    HW137556   4.010   2.793   6.836
 8739SOL    HW237557   3.848   2.773   6.831
 8740SOL     OW37558   4.041   2.113   7.387
 8740SOL    HW137559   4.112   2.184   7.393
 8740SOL    HW237560   3.953   2.152   7.415
 8741SOL     OW37561   4.322   2.591   5.856
 8741SOL    HW137562   4.346   2.660   5.788
 8741SOL    HW237563   4.244   2.624   5.910
 8742SOL     OW37564   4.531   2.467   7.051
 8742SOL    HW137565   4.484   2.464   7.140
 8742SOL    HW237566   4.480   2.412   6.985
 8743SOL     OW37567   4.697   2.752   7.158
 8743SOL    HW137568   4.743   2.668   7.129
 8743SOL    HW237569   4.641   2.786   7.083
 8744SOL     OW37570   4.715   2.272   6.828
 8744SOL    HW137571   4.638   2.306   6.882
 8744SOL    HW237572   4.681   2.221   6.749
 8745SOL     OW37573   3.800   2.673   6.375
 8745SOL    HW137574   3.899   2.661   6.384
 8745SOL    HW237575   3.776   2.768   6.396
 8746SOL     OW37576   3.854   3.683   7.157
 8746SOL    HW137577   3.844   3.668   7.256
 8746SOL    HW237578   3.768   3.719   7.121
 8747SOL     OW37579   4.589   2.210   5.781
 8747SOL    HW137580   4.648   2.273   5.732
 8747SOL    HW237581   4.608   2.116   5.752
 8748SOL     OW37582   4.274   2.058   6.471
 8748SOL    HW137583   4.269   2.053   6.571
 8748SOL    HW237584   4.276   2.154   6.442
 8749SOL     OW37585   4.732   3.318   6.063
 8749SOL    HW137586   4.686   3.390   6.011
 8749SOL    HW237587   4.728   3.338   6.161
 8750SOL     OW37588   4.075   3.663   6.439
 8750SOL    HW137589   4.125   3.577   6.445
 8750SOL    HW237590   4.140   3.740   6.436
 8751SOL     OW37591   4.045   2.805   5.828
 8751SOL    HW137592   4.127   2.844   5.786
 8751SOL    HW237593   4.018   2.723   5.779
 8752SOL     OW37594   4.185   3.128   7.313
 8752SOL    HW137595   4.135   3.129   7.227
 8752SOL    HW237596   4.122   3.110   7.389
 8753SOL     OW37597   3.926   2.147   7.084
 8753SOL    HW137598   3.846   2.207   7.071
 8753SOL    HW237599   3.916   2.098   7.170
 8754SOL     OW37600   4.188   3.605   5.909
 8754SOL    HW137601   4.221   3.644   5.995
 8754SOL    HW237602   4.264   3.598   5.844
 8755SOL     OW37603   3.973   3.647   6.827
 8755SOL    HW137604   4.030   3.582   6.877
 8755SOL    HW237605   3.957   3.614   6.734
 8756SOL     OW37606   4.106   2.562   6.066
 8756SOL    HW137607   4.151   2.472   6.063
 8756SOL    HW237608   4.012   2.551   6.099
 8757SOL     OW37609   4.338   1.984   5.703
 8757SOL    HW137610   4.436   1.962   5.710
 8757SOL    HW237611   4.307   1.967   5.610
 8758SOL     OW37612   4.505   2.126   7.335
 8758SOL    HW137613   4.572   2.065   7.378
 8758SOL    HW237614   4.432   2.145   7.400
 8759SOL     OW37615   4.612   3.376   6.781
 8759SOL    HW137616   4.589   3.351   6.687
 8759SOL    HW237617   4.673   3.307   6.820
 8760SOL     OW37618   4.527   3.264   6.510
 8760SOL    HW137619   4.617   3.278   6.468
 8760SOL    HW237620   4.456   3.266   6.439
 8761SOL     OW37621   4.646   2.365   6.485
 8761SOL    HW137622   4.621   2.356   6.389
 8761SOL    HW237623   4.694   2.283   6.516
 8762SOL     OW37624   4.263   1.926   6.098
 8762SOL    HW137625   4.182   1.927   6.156
 8762SOL    HW237626   4.266   2.009   6.043
 8763SOL     OW37627   4.021   1.897   5.757
 8763SOL    HW137628   4.070   1.981   5.736
 8763SOL    HW237629   4.083   1.832   5.802
 8764SOL     OW37630   4.659   2.098   6.066
 8764SOL    HW137631   4.611   2.139   5.988
 8764SOL    HW237632   4.758   2.096   6.047
 8765SOL     OW37633   4.951   3.432   6.379
 8765SOL    HW137634   4.972   3.506   6.314
 8765SOL    HW237635   5.019   3.432   6.452
 8766SOL     OW37636   4.183   3.014   6.327
 8766SOL    HW137637   4.112   2.987   6.392
 8766SOL    HW237638   4.157   2.986   6.234
 8767SOL     OW37639   4.756   2.411   5.602
 8767SOL    HW137640   4.715   2.493   5.563
 8767SOL    HW237641   4.820   2.437   5.675
 8768SOL     OW37642   3.802   2.418   6.972
 8768SOL    HW137643   3.894   2.417   6.931
 8768SOL    HW237644   3.796   2.492   7.039
 8769SOL     OW37645   4.285   2.084   6.733
 8769SOL    HW137646   4.323   2.000   6.770
 8769SOL    HW237647   4.197   2.103   6.777
 8770SOL     OW37648   4.590   2.316   6.228
 8770SOL    HW137649   4.558   2.388   6.166
 8770SOL    HW237650   4.614   2.235   6.175
 8771SOL     OW37651   4.741   1.901   6.339
 8771SOL    HW137652   4.669   1.906   6.270
 8771SOL    HW237653   4.717   1.832   6.408
 8772SOL     OW37654   4.212   3.247   5.760
 8772SOL    HW137655   4.125   3.232   5.807
 8772SOL    HW237656   4.195   3.273   5.665
 8773SOL     OW37657   4.251   2.118   5.914
 8773SOL    HW137658   4.278   2.059   5.839
 8773SOL    HW237659   4.251   2.213   5.883
 8774SOL     OW37660   4.639   1.951   6.988
 8774SOL    HW137661   4.664   1.931   6.893
 8774SOL    HW237662   4.711   2.007   7.030
 8775SOL     OW37663   4.704   2.978   7.305
 8775SOL    HW137664   4.605   2.984   7.315
 8775SOL    HW237665   4.727   2.898   7.249
 8776SOL     OW37666   4.429   2.912   5.954
 8776SOL    HW137667   4.415   2.919   6.053
 8776SOL    HW237668   4.513   2.861   5.936
 8777SOL     OW37669   4.134   2.675   6.837
 8777SOL    HW137670   4.220   2.687   6.887
 8777SOL    HW237671   4.092   2.588   6.864
 8778SOL     OW37672   3.788   3.426   6.917
 8778SOL    HW137673   3.742   3.508   6.883
 8778SOL    HW237674   3.886   3.445   6.926
 8779SOL     OW37675   4.091   2.962   6.087
 8779SOL    HW137676   4.084   3.045   6.031
 8779SOL    HW237677   4.095   2.882   6.027
 8780SOL     OW37678   4.290   2.399   6.451
 8780SOL    HW137679   4.302   2.465   6.377
 8780SOL    HW237680   4.336   2.433   6.534
 8781SOL     OW37681   4.078   3.372   6.915
 8781SOL    HW137682   4.057   3.328   6.828
 8781SOL    HW237683   4.175   3.398   6.918
 8782SOL     OW37684   4.126   2.613   7.184
 8782SOL    HW137685   4.194   2.668   7.137
 8782SOL    HW237686   4.166   2.525   7.211
 8783SOL     OW37687   4.737   1.967   7.356
 8783SOL    HW137688   4.743   2.052   7.304
 8783SOL    HW237689   4.769   1.891   7.299
 8784SOL     OW37690   4.228   1.912   7.326
 8784SOL    HW137691   4.186   1.855   7.256
 8784SOL    HW237692   4.162   1.981   7.358
 8785SOL     OW37693   4.297   2.732   6.615
 8785SOL    HW137694   4.341   2.821   6.606
 8785SOL    HW237695   4.234   2.732   6.692
 8786SOL     OW37696   4.933   2.387   5.861
 8786SOL    HW137697   4.946   2.303   5.915
 8786SOL    HW237698   4.904   2.461   5.921
 8787SOL     OW37699   4.031   2.075   6.817
 8787SOL    HW137700   4.008   2.112   6.907
 8787SOL    HW237701   4.001   1.980   6.811
 8788SOL     OW37702   3.761   3.172   6.868
 8788SOL    HW137703   3.814   3.123   6.936
 8788SOL    HW237704   3.783   3.270   6.873
 8789SOL     OW37705   4.456   2.496   6.650
 8789SOL    HW137706   4.515   2.470   6.574
 8789SOL    HW237707   4.428   2.592   6.639
 8790SOL     OW37708   4.747   2.628   6.552
 8790SOL    HW137709   4.762   2.649   6.648
 8790SOL    HW237710   4.717   2.533   6.543
 8791SOL     OW37711   4.704   3.435   7.286
 8791SOL    HW137712   4.684   3.479   7.198
 8791SOL    HW237713   4.743   3.344   7.270
 8792SOL     OW37714   4.074   2.760   7.390
 8792SOL    HW137715   4.150   2.804   7.438
 8792SOL    HW237716   4.109   2.713   7.308
 8793SOL     OW37717   4.043   2.672   6.535
 8793SOL    HW137718   4.136   2.708   6.540
 8793SOL    HW237719   4.037   2.587   6.587
 8794SOL     OW37720   4.063   2.371   6.592
 8794SOL    HW137721   4.011   2.288   6.575
 8794SOL    HW237722   4.140   2.376   6.528
 8795SOL     OW37723   3.732   3.188   5.786
 8795SOL    HW137724   3.639   3.209   5.755
 8795SOL    HW237725   3.742   3.089   5.799
 8796SOL     OW37726   3.812   3.663   6.513
 8796SOL    HW137727   3.770   3.577   6.486
 8796SOL    HW237728   3.906   3.666   6.479
 8797SOL     OW37729   4.228   3.430   6.496
 8797SOL    HW137730   4.294   3.504   6.505
 8797SOL    HW237731   4.272   3.351   6.454
 8798SOL     OW37732   4.726   2.658   6.824
 8798SOL    HW137733   4.767   2.626   6.910
 8798SOL    HW237734   4.630   2.631   6.821
 8799SOL     OW37735   3.764   2.406   6.700
 8799SOL    HW137736   3.849   2.373   6.659
 8799SOL    HW237737   3.777   2.421   6.798
 8800SOL     OW37738   3.913   2.382   7.308
 8800SOL    HW137739   3.972   2.342   7.238
 8800SOL    HW237740   3.855   2.453   7.267
 8801SOL     OW37741   4.539   2.434   5.911
 8801SOL    HW137742   4.546   2.345   5.865
 8801SOL    HW237743   4.445   2.468   5.903
 8802SOL     OW37744   3.976   3.426   7.330
 8802SOL    HW137745   3.946   3.483   7.406
 8802SOL    HW237746   3.969   3.329   7.356
 8803SOL     OW37747   4.395   2.326   6.855
 8803SOL    HW137748   4.361   2.237   6.825
 8803SOL    HW237749   4.421   2.380   6.775
 8804SOL     OW37750   4.654   3.540   7.051
 8804SOL    HW137751   4.630   3.522   6.956
 8804SOL    HW237752   4.684   3.634   7.061
 8805SOL     OW37753   4.197   2.362   5.777
 8805SOL    HW137754   4.258   2.442   5.781
 8805SOL    HW237755   4.102   2.393   5.784
 8806SOL     OW37756   3.883   2.999   7.052
 8806SOL    HW137757   3.905   2.938   7.128
 8806SOL    HW237758   3.893   2.950   6.966
 8807SOL     OW37759   3.807   3.120   6.608
 8807SOL    HW137760   3.802   3.119   6.708
 8807SOL    HW237761   3.724   3.079   6.570
 8808SOL     OW37762   4.412   3.524   7.302
 8808SOL    HW137763   4.356   3.605   7.311
 8808SOL    HW237764   4.464   3.528   7.216
 8809SOL     OW37765   3.854   3.656   7.437
 8809SOL    HW137766   3.813   3.582   7.490
 8809SOL    HW237767   3.918   3.707   7.495
 8810SOL     OW37768   4.554   3.135   7.008
 8810SOL    HW137769   4.549   3.168   7.103
 8810SOL    HW237770   4.468   3.154   6.962
 8811SOL     OW37771   4.396   3.478   5.740
 8811SOL    HW137772   4.405   3.488   5.641
 8811SOL    HW237773   4.356   3.389   5.761
 8812SOL     OW37774   3.987   2.188   6.306
 8812SOL    HW137775   3.908   2.239   6.272
 8812SOL    HW237776   3.978   2.173   6.404
 8813SOL     OW37777   4.546   2.864   6.958
 8813SOL    HW137778   4.586   2.863   6.866
 8813SOL    HW237779   4.556   2.956   6.998
 8814SOL     OW37780   4.640   2.772   5.877
 8814SOL    HW137781   4.703   2.810   5.809
 8814SOL    HW237782   4.680   2.689   5.916
 8815SOL     OW37783   4.096   3.150   7.076
 8815SOL    HW137784   4.083   3.243   7.042
 8815SOL    HW237785   4.012   3.098   7.063
 8816SOL     OW37786   4.763   2.960   6.282
 8816SOL    HW137787   4.693   2.913   6.336
 8816SOL    HW237788   4.822   2.892   6.239
 8817SOL     OW37789   4.738   2.098   6.557
 8817SOL    HW137790   4.730   2.062   6.464
 8817SOL    HW237791   4.736   2.022   6.622
 8818SOL     OW37792   4.314   3.349   6.077
 8818SOL    HW137793   4.356   3.291   6.007
 8818SOL    HW237794   4.270   3.428   6.033
 8819SOL     OW37795   3.979   3.210   5.876
 8819SOL    HW137796   3.883   3.211   5.849
 8819SOL    HW237797   3.991   3.263   5.960
 8820SOL     OW37798   3.829   2.875   7.312
 8820SOL    HW137799   3.752   2.842   7.366
 8820SOL    HW237800   3.914   2.845   7.354
 8821SOL     OW37801   4.396   2.065   7.075
 8821SOL    HW137802   4.486   2.049   7.035
 8821SOL    HW237803   4.404   2.070   7.174
 8822SOL     OW37804   3.799   2.207   5.619
 8822SOL    HW137805   3.707   2.179   5.590
 8822SOL    HW237806   3.830   2.284   5.563
 8823SOL     OW37807   3.796   2.028   5.904
 8823SOL    HW137808   3.779   2.111   5.850
 8823SOL    HW237809   3.886   1.991   5.882
 8824SOL     OW37810   4.337   2.704   7.017
 8824SOL    HW137811   4.393   2.785   7.000
 8824SOL    HW237812   4.396   2.624   7.020
 8825SOL     OW37813   4.440   2.427   7.294
 8825SOL    HW137814   4.459   2.492   7.368
 8825SOL    HW237815   4.500   2.347   7.303
 8826SOL     OW37816   4.114   3.603   7.146
 8826SOL    HW137817   4.023   3.644   7.144
 8826SOL    HW237818   4.107   3.509   7.178
 8827SOL     OW37819   4.949   2.187   6.035
 8827SOL    HW137820   5.014   2.113   6.024
 8827SOL    HW237821   4.969   2.237   6.119
 8828SOL     OW37822   4.318   2.607   6.238
 8828SOL    HW137823   4.368   2.692   6.219
 8828SOL    HW237824   4.230   2.609   6.190
 8829SOL     OW37825   4.583   3.236   5.602
 8829SOL    HW137826   4.537   3.251   5.690
 8829SOL    HW237827   4.627   3.321   5.572
 8830SOL     OW37828   4.385   3.652   6.539
 8830SOL    HW137829   4.339   3.740   6.526
 8830SOL    HW237830   4.484   3.664   6.532
 8831SOL     OW37831   4.583   2.818   6.447
 8831SOL    HW137832   4.637   2.749   6.495
 8831SOL    HW237833   4.551   2.887   6.513
 8832SOL     OW37834   3.945   3.176   7.430
 8832SOL    HW137835   3.880   3.103   7.409
 8832SOL    HW237836   3.949   3.190   7.528
 8833SOL     OW37837   3.803   3.102   6.239
 8833SOL    HW137838   3.802   3.055   6.327
 8833SOL    HW237839   3.885   3.074   6.188
 8834SOL     OW37840   4.396   3.253   7.210
 8834SOL    HW137841   4.318   3.203   7.248
 8834SOL    HW237842   4.393   3.348   7.241
 8835SOL     OW37843   4.152   2.286   6.106
 8835SOL    HW137844   4.182   2.214   6.044
 8835SOL    HW237845   4.113   2.246   6.189
 8836SOL     OW37846   4.041   2.409   6.866
 8836SOL    HW137847   4.079   2.350   6.938
 8836SOL    HW237848   4.081   2.383   6.778
 8837SOL     OW37849   4.536   3.448   6.273
 8837SOL    HW137850   4.568   3.458   6.179
 8837SOL    HW237851   4.457   3.386   6.275
 8838SOL     OW37852   4.725   1.896   6.740
 8838SOL    HW137853   4.662   1.824   6.709
 8838SOL    HW237854   4.818   1.860   6.740
 8839SOL     OW37855   4.494   3.192   5.887
 8839SOL    HW137856   4.448   3.105   5.904
 8839SOL    HW237857   4.585   3.189   5.928
 8840SOL     OW37858   4.342   3.429   6.870
 8840SOL    HW137859   4.337   3.511   6.927
 8840SOL    HW237860   4.431   3.426   6.825
 8841SOL     OW37861   3.763   2.939   5.886
 8841SOL    HW137862   3.862   2.928   5.877
 8841SOL    HW237863   3.723   2.853   5.918
 8842SOL     OW37864   4.599   3.508   5.923
 8842SOL    HW137865   4.522   3.473   5.869
 8842SOL    HW237866   4.567   3.579   5.985
 8843SOL     OW37867   3.954   2.490   7.561
 8843SOL    HW137868   3.861   2.488   7.598
 8843SOL    HW237869   3.955   2.451   7.469
 8844SOL     OW37870   3.949   2.137   8.444
 8844SOL    HW137871   3.984   2.120   8.536
 8844SOL    HW237872   3.861   2.092   8.432
 8845SOL     OW37873   3.743   2.230   8.095
 8845SOL    HW137874   3.661   2.273   8.134
 8845SOL    HW237875   3.715   2.157   8.032
 8846SOL     OW37876   4.293   3.137   8.613
 8846SOL    HW137877   4.200   3.130   8.576
 8846SOL    HW237878   4.304   3.226   8.657
 8847SOL     OW37879   4.492   3.006   8.471
 8847SOL    HW137880   4.414   3.023   8.531
 8847SOL    HW237881   4.526   3.093   8.435
 8848SOL     OW37882   4.574   2.660   9.271
 8848SOL    HW137883   4.570   2.736   9.336
 8848SOL    HW237884   4.596   2.696   9.180
 8849SOL     OW37885   4.409   2.874   8.113
 8849SOL    HW137886   4.478   2.858   8.183
 8849SOL    HW237887   4.336   2.931   8.151
 8850SOL     OW37888   4.410   3.023   9.251
 8850SOL    HW137889   4.470   3.102   9.265
 8850SOL    HW237890   4.324   3.054   9.210
 8851SOL     OW37891   4.059   3.297   8.509
 8851SOL    HW137892   3.981   3.266   8.456
 8851SOL    HW237893   4.117   3.355   8.452
 8852SOL     OW37894   4.162   2.254   8.947
 8852SOL    HW137895   4.244   2.198   8.956
 8852SOL    HW237896   4.081   2.196   8.951
 8853SOL     OW37897   3.955   3.575   7.931
 8853SOL    HW137898   3.989   3.652   7.985
 8853SOL    HW237899   3.999   3.575   7.841
 8854SOL     OW37900   3.954   3.296   7.986
 8854SOL    HW137901   3.928   3.392   7.986
 8854SOL    HW237902   3.883   3.242   8.031
 8855SOL     OW37903   3.964   2.953   8.334
 8855SOL    HW137904   3.978   2.869   8.386
 8855SOL    HW237905   3.909   3.017   8.389
 8856SOL     OW37906   4.344   3.648   8.887
 8856SOL    HW137907   4.252   3.631   8.922
 8856SOL    HW237908   4.372   3.740   8.913
 8857SOL     OW37909   4.330   2.826   7.571
 8857SOL    HW137910   4.337   2.910   7.517
 8857SOL    HW237911   4.376   2.839   7.659
 8858SOL     OW37912   3.846   2.505   8.011
 8858SOL    HW137913   3.801   2.417   8.028
 8858SOL    HW237914   3.845   2.559   8.095
 8859SOL     OW37915   3.751   3.458   7.565
 8859SOL    HW137916   3.732   3.362   7.586
 8859SOL    HW237917   3.718   3.516   7.640
 8860SOL     OW37918   3.837   2.599   9.045
 8860SOL    HW137919   3.925   2.586   9.090
 8860SOL    HW237920   3.824   2.696   9.023
 8861SOL     OW37921   4.337   3.227   8.174
 8861SOL    HW137922   4.288   3.140   8.183
 8861SOL    HW237923   4.314   3.270   8.087
 8862SOL     OW37924   4.533   1.866   7.950
 8862SOL    HW137925   4.573   1.957   7.941
 8862SOL    HW237926   4.433   1.874   7.956
 8863SOL     OW37927   3.921   2.838   8.712
 8863SOL    HW137928   4.010   2.793   8.698
 8863SOL    HW237929   3.848   2.773   8.693
 8864SOL     OW37930   4.041   2.113   9.249
 8864SOL    HW137931   4.112   2.184   9.255
 8864SOL    HW237932   3.953   2.152   9.277
 8865SOL     OW37933   4.322   2.591   7.718
 8865SOL    HW137934   4.346   2.660   7.650
 8865SOL    HW237935   4.244   2.624   7.772
 8866SOL     OW37936   4.531   2.467   8.913
 8866SOL    HW137937   4.484   2.464   9.002
 8866SOL    HW237938   4.480   2.412   8.847
 8867SOL     OW37939   4.697   2.752   9.020
 8867SOL    HW137940   4.743   2.668   8.991
 8867SOL    HW237941   4.641   2.786   8.945
 8868SOL     OW37942   4.715   2.272   8.690
 8868SOL    HW137943   4.638   2.306   8.744
 8868SOL    HW237944   4.681   2.221   8.611
 8869SOL     OW37945   3.800   2.673   8.237
 8869SOL    HW137946   3.899   2.661   8.246
 8869SOL    HW237947   3.776   2.768   8.258
 8870SOL     OW37948   4.589   2.210   7.643
 8870SOL    HW137949   4.648   2.273   7.594
 8870SOL    HW237950   4.608   2.116   7.614
 8871SOL     OW37951   4.274   2.058   8.333
 8871SOL    HW137952   4.269   2.053   8.433
 8871SOL    HW237953   4.276   2.154   8.304
 8872SOL     OW37954   4.732   3.318   7.925
 8872SOL    HW137955   4.686   3.390   7.873
 8872SOL    HW237956   4.728   3.338   8.023
 8873SOL     OW37957   4.075   3.663   8.301
 8873SOL    HW137958   4.125   3.577   8.307
 8873SOL    HW237959   4.140   3.740   8.298
 8874SOL     OW37960   4.045   2.805   7.690
 8874SOL    HW137961   4.127   2.844   7.648
 8874SOL    HW237962   4.018   2.723   7.641
 8875SOL     OW37963   4.185   3.128   9.175
 8875SOL    HW137964   4.135   3.129   9.089
 8875SOL    HW237965   4.122   3.110   9.251
 8876SOL     OW37966   3.926   2.147   8.946
 8876SOL    HW137967   3.846   2.207   8.933
 8876SOL    HW237968   3.916   2.098   9.032
 8877SOL     OW37969   4.188   3.605   7.771
 8877SOL    HW137970   4.221   3.644   7.857
 8877SOL    HW237971   4.264   3.598   7.706
 8878SOL     OW37972   3.973   3.647   8.689
 8878SOL    HW137973   4.030   3.582   8.739
 8878SOL    HW237974   3.957   3.614   8.596
 8879SOL     OW37975   4.106   2.562   7.928
 8879SOL    HW137976   4.151   2.472   7.925
 8879SOL    HW237977   4.012   2.551   7.961
 8880SOL     OW37978   4.338   1.984   7.565
 8880SOL    HW137979   4.436   1.962   7.572
 8880SOL    HW237980   4.307   1.967   7.472
 8881SOL     OW37981   4.505   2.126   9.197
 8881SOL    HW137982   4.572   2.065   9.240
 8881SOL    HW237983   4.432   2.145   9.262
 8882SOL     OW37984   4.612   3.376   8.643
 8882SOL    HW137985   4.589   3.351   8.549
 8882SOL    HW237986   4.673   3.307   8.682
 8883SOL     OW37987   4.527   3.264   8.372
 8883SOL    HW137988   4.617   3.278   8.330
 8883SOL    HW237989   4.456   3.266   8.301
 8884SOL     OW37990   4.646   2.365   8.347
 8884SOL    HW137991   4.621   2.356   8.251
 8884SOL    HW237992   4.694   2.283   8.378
 8885SOL     OW37993   4.263   1.926   7.960
 8885SOL    HW137994   4.182   1.927   8.018
 8885SOL    HW237995   4.266   2.009   7.905
 8886SOL     OW37996   4.021   1.897   7.619
 8886SOL    HW137997   4.070   1.981   7.598
 8886SOL    HW237998   4.083   1.832   7.664
 8887SOL     OW37999   4.659   2.098   7.928
 8887SOL    HW138000   4.611   2.139   7.850
 8887SOL    HW238001   4.758   2.096   7.909
 8888SOL     OW38002   4.951   3.432   8.241
 8888SOL    HW138003   4.972   3.506   8.176
 8888SOL    HW238004   5.019   3.432   8.314
 8889SOL     OW38005   4.183   3.014   8.189
 8889SOL    HW138006   4.112   2.987   8.254
 8889SOL    HW238007   4.157   2.986   8.096
 8890SOL     OW38008   4.756   2.411   7.464
 8890SOL    HW138009   4.715   2.493   7.425
 8890SOL    HW238010   4.820   2.437   7.537
 8891SOL     OW38011   3.802   2.418   8.834
 8891SOL    HW138012   3.894   2.417   8.793
 8891SOL    HW238013   3.796   2.492   8.901
 8892SOL     OW38014   4.285   2.084   8.595
 8892SOL    HW138015   4.323   2.000   8.632
 8892SOL    HW238016   4.197   2.103   8.639
 8893SOL     OW38017   4.590   2.316   8.090
 8893SOL    HW138018   4.558   2.388   8.028
 8893SOL    HW238019   4.614   2.235   8.037
 8894SOL     OW38020   4.741   1.901   8.201
 8894SOL    HW138021   4.669   1.906   8.132
 8894SOL    HW238022   4.717   1.832   8.270
 8895SOL     OW38023   4.212   3.247   7.622
 8895SOL    HW138024   4.125   3.232   7.669
 8895SOL    HW238025   4.195   3.273   7.527
 8896SOL     OW38026   4.251   2.118   7.776
 8896SOL    HW138027   4.278   2.059   7.701
 8896SOL    HW238028   4.251   2.213   7.745
 8897SOL     OW38029   4.639   1.951   8.850
 8897SOL    HW138030   4.664   1.931   8.755
 8897SOL    HW238031   4.711   2.007   8.892
 8898SOL     OW38032   4.704   2.978   9.167
 8898SOL    HW138033   4.605   2.984   9.177
 8898SOL    HW238034   4.727   2.898   9.111
 8899SOL     OW38035   4.429   2.912   7.816
 8899SOL    HW138036   4.415   2.919   7.915
 8899SOL    HW238037   4.513   2.861   7.798
 8900SOL     OW38038   4.134   2.675   8.699
 8900SOL    HW138039   4.220   2.687   8.749
 8900SOL    HW238040   4.092   2.588   8.726
 8901SOL     OW38041   3.788   3.426   8.779
 8901SOL    HW138042   3.742   3.508   8.745
 8901SOL    HW238043   3.886   3.445   8.788
 8902SOL     OW38044   4.091   2.962   7.949
 8902SOL    HW138045   4.084   3.045   7.893
 8902SOL    HW238046   4.095   2.882   7.889
 8903SOL     OW38047   4.290   2.399   8.313
 8903SOL    HW138048   4.302   2.465   8.239
 8903SOL    HW238049   4.336   2.433   8.396
 8904SOL     OW38050   4.078   3.372   8.777
 8904SOL    HW138051   4.057   3.328   8.690
 8904SOL    HW238052   4.175   3.398   8.780
 8905SOL     OW38053   4.126   2.613   9.046
 8905SOL    HW138054   4.194   2.668   8.999
 8905SOL    HW238055   4.166   2.525   9.073
 8906SOL     OW38056   4.737   1.967   9.218
 8906SOL    HW138057   4.743   2.052   9.166
 8906SOL    HW238058   4.769   1.891   9.161
 8907SOL     OW38059   4.228   1.912   9.188
 8907SOL    HW138060   4.186   1.855   9.118
 8907SOL    HW238061   4.162   1.981   9.220
 8908SOL     OW38062   4.297   2.732   8.477
 8908SOL    HW138063   4.341   2.821   8.468
 8908SOL    HW238064   4.234   2.732   8.554
 8909SOL     OW38065   4.933   2.387   7.723
 8909SOL    HW138066   4.946   2.303   7.777
 8909SOL    HW238067   4.904   2.461   7.783
 8910SOL     OW38068   4.031   2.075   8.679
 8910SOL    HW138069   4.008   2.112   8.769
 8910SOL    HW238070   4.001   1.980   8.673
 8911SOL     OW38071   3.761   3.172   8.730
 8911SOL    HW138072   3.814   3.123   8.798
 8911SOL    HW238073   3.783   3.270   8.735
 8912SOL     OW38074   4.456   2.496   8.512
 8912SOL    HW138075   4.515   2.470   8.436
 8912SOL    HW238076   4.428   2.592   8.501
 8913SOL     OW38077   4.031   1.925   8.066
 8913SOL    HW138078   4.020   2.019   8.099
 8913SOL    HW238079   4.026   1.862   8.143
 8914SOL     OW38080   4.747   2.628   8.414
 8914SOL    HW138081   4.762   2.649   8.510
 8914SOL    HW238082   4.717   2.533   8.405
 8915SOL     OW38083   4.704   3.435   9.148
 8915SOL    HW138084   4.684   3.479   9.060
 8915SOL    HW238085   4.743   3.344   9.132
 8916SOL     OW38086   4.074   2.760   9.252
 8916SOL    HW138087   4.150   2.804   9.300
 8916SOL    HW238088   4.109   2.713   9.170
 8917SOL     OW38089   4.043   2.672   8.397
 8917SOL    HW138090   4.136   2.708   8.402
 8917SOL    HW238091   4.037   2.587   8.449
 8918SOL     OW38092   4.063   2.371   8.454
 8918SOL    HW138093   4.011   2.288   8.437
 8918SOL    HW238094   4.140   2.376   8.390
 8919SOL     OW38095   3.732   3.188   7.648
 8919SOL    HW138096   3.639   3.209   7.617
 8919SOL    HW238097   3.742   3.089   7.661
 8920SOL     OW38098   3.812   3.663   8.375
 8920SOL    HW138099   3.770   3.577   8.348
 8920SOL    HW238100   3.906   3.666   8.341
 8921SOL     OW38101   4.228   3.430   8.358
 8921SOL    HW138102   4.294   3.504   8.367
 8921SOL    HW238103   4.272   3.351   8.316
 8922SOL     OW38104   4.726   2.658   8.686
 8922SOL    HW138105   4.767   2.626   8.772
 8922SOL    HW238106   4.630   2.631   8.683
 8923SOL     OW38107   3.764   2.406   8.562
 8923SOL    HW138108   3.849   2.373   8.521
 8923SOL    HW238109   3.777   2.421   8.660
 8924SOL     OW38110   3.913   2.382   9.170
 8924SOL    HW138111   3.972   2.342   9.100
 8924SOL    HW238112   3.855   2.453   9.129
 8925SOL     OW38113   4.539   2.434   7.773
 8925SOL    HW138114   4.546   2.345   7.727
 8925SOL    HW238115   4.445   2.468   7.765
 8926SOL     OW38116   3.976   3.426   9.192
 8926SOL    HW138117   3.946   3.483   9.268
 8926SOL    HW238118   3.969   3.329   9.218
 8927SOL     OW38119   4.395   2.326   8.717
 8927SOL    HW138120   4.361   2.237   8.687
 8927SOL    HW238121   4.421   2.380   8.637
 8928SOL     OW38122   4.654   3.540   8.913
 8928SOL    HW138123   4.630   3.522   8.818
 8928SOL    HW238124   4.684   3.634   8.923
 8929SOL     OW38125   4.197   2.362   7.639
 8929SOL    HW138126   4.258   2.442   7.643
 8929SOL    HW238127   4.102   2.393   7.646
 8930SOL     OW38128   3.883   2.999   8.914
 8930SOL    HW138129   3.905   2.938   8.990
 8930SOL    HW238130   3.893   2.950   8.828
 8931SOL     OW38131   3.807   3.120   8.470
 8931SOL    HW138132   3.802   3.119   8.570
 8931SOL    HW238133   3.724   3.079   8.432
 8932SOL     OW38134   4.412   3.524   9.164
 8932SOL    HW138135   4.356   3.605   9.173
 8932SOL    HW238136   4.464   3.528   9.078
 8933SOL     OW38137   3.854   3.656   9.299
 8933SOL    HW138138   3.813   3.582   9.352
 8933SOL    HW238139   3.918   3.707   9.357
 8934SOL     OW38140   5.004   2.789   8.120
 8934SOL    HW138141   5.064   2.708   8.122
 8934SOL    HW238142   5.044   2.858   8.060
 8935SOL     OW38143   4.554   3.135   8.870
 8935SOL    HW138144   4.549   3.168   8.965
 8935SOL    HW238145   4.468   3.154   8.824
 8936SOL     OW38146   4.396   3.478   7.602
 8936SOL    HW138147   4.405   3.488   7.503
 8936SOL    HW238148   4.356   3.389   7.623
 8937SOL     OW38149   3.987   2.188   8.168
 8937SOL    HW138150   3.908   2.239   8.134
 8937SOL    HW238151   3.978   2.173   8.266
 8938SOL     OW38152   4.546   2.864   8.820
 8938SOL    HW138153   4.586   2.863   8.728
 8938SOL    HW238154   4.556   2.956   8.860
 8939SOL     OW38155   4.640   2.772   7.739
 8939SOL    HW138156   4.703   2.810   7.671
 8939SOL    HW238157   4.680   2.689   7.778
 8940SOL     OW38158   4.096   3.150   8.938
 8940SOL    HW138159   4.083   3.243   8.904
 8940SOL    HW238160   4.012   3.098   8.925
 8941SOL     OW38161   4.763   2.960   8.144
 8941SOL    HW138162   4.693   2.913   8.198
 8941SOL    HW238163   4.822   2.892   8.101
 8942SOL     OW38164   4.738   2.098   8.419
 8942SOL    HW138165   4.730   2.062   8.326
 8942SOL    HW238166   4.736   2.022   8.484
 8943SOL     OW38167   4.314   3.349   7.939
 8943SOL    HW138168   4.356   3.291   7.869
 8943SOL    HW238169   4.270   3.428   7.895
 8944SOL     OW38170   3.979   3.210   7.738
 8944SOL    HW138171   3.883   3.211   7.711
 8944SOL    HW238172   3.991   3.263   7.822
 8945SOL     OW38173   3.829   2.875   9.174
 8945SOL    HW138174   3.752   2.842   9.228
 8945SOL    HW238175   3.914   2.845   9.216
 8946SOL     OW38176   4.396   2.065   8.937
 8946SOL    HW138177   4.486   2.049   8.897
 8946SOL    HW238178   4.404   2.070   9.036
 8947SOL     OW38179   3.799   2.207   7.481
 8947SOL    HW138180   3.707   2.179   7.452
 8947SOL    HW238181   3.830   2.284   7.425
 8948SOL     OW38182   3.796   2.028   7.766
 8948SOL    HW138183   3.779   2.111   7.712
 8948SOL    HW238184   3.886   1.991   7.744
 8949SOL     OW38185   4.337   2.704   8.879
 8949SOL    HW138186   4.393   2.785   8.862
 8949SOL    HW238187   4.396   2.624   8.882
 8950SOL     OW38188   4.440   2.427   9.156
 8950SOL    HW138189   4.459   2.492   9.230
 8950SOL    HW238190   4.500   2.347   9.165
 8951SOL     OW38191   4.114   3.603   9.008
 8951SOL    HW138192   4.023   3.644   9.006
 8951SOL    HW238193   4.107   3.509   9.040
 8952SOL     OW38194   4.949   2.187   7.897
 8952SOL    HW138195   5.014   2.113   7.886
 8952SOL    HW238196   4.969   2.237   7.981
 8953SOL     OW38197   4.318   2.607   8.100
 8953SOL    HW138198   4.368   2.692   8.081
 8953SOL    HW238199   4.230   2.609   8.052
 8954SOL     OW38200   4.583   3.236   7.464
 8954SOL    HW138201   4.537   3.251   7.552
 8954SOL    HW238202   4.627   3.321   7.434
 8955SOL     OW38203   4.385   3.652   8.401
 8955SOL    HW138204   4.339   3.740   8.388
 8955SOL    HW238205   4.484   3.664   8.394
 8956SOL     OW38206   4.583   2.818   8.309
 8956SOL    HW138207   4.637   2.749   8.357
 8956SOL    HW238208   4.551   2.887   8.375
 8957SOL     OW38209   3.945   3.176   9.292
 8957SOL    HW138210   3.880   3.103   9.271
 8957SOL    HW238211   3.949   3.190   9.390
 8958SOL     OW38212   3.803   3.102   8.101
 8958SOL    HW138213   3.802   3.055   8.189
 8958SOL    HW238214   3.885   3.074   8.050
 8959SOL     OW38215   4.396   3.253   9.072
 8959SOL    HW138216   4.318   3.203   9.110
 8959SOL    HW238217   4.393   3.348   9.103
 8960SOL     OW38218   4.152   2.286   7.968
 8960SOL    HW138219   4.182   2.214   7.906
 8960SOL    HW238220   4.113   2.246   8.051
 8961SOL     OW38221   4.041   2.409   8.728
 8961SOL    HW138222   4.079   2.350   8.800
 8961SOL    HW238223   4.081   2.383   8.640
 8962SOL     OW38224   4.536   3.448   8.135
 8962SOL    HW138225   4.568   3.458   8.041
 8962SOL    HW238226   4.457   3.386   8.137
 8963SOL     OW38227   4.725   1.896   8.602
 8963SOL    HW138228   4.662   1.824   8.571
 8963SOL    HW238229   4.818   1.860   8.602
 8964SOL     OW38230   4.494   3.192   7.749
 8964SOL    HW138231   4.448   3.105   7.766
 8964SOL    HW238232   4.585   3.189   7.790
 8965SOL     OW38233   4.342   3.429   8.732
 8965SOL    HW138234   4.337   3.511   8.789
 8965SOL    HW238235   4.431   3.426   8.687
 8966SOL     OW38236   3.763   2.939   7.748
 8966SOL    HW138237   3.862   2.928   7.739
 8966SOL    HW238238   3.723   2.853   7.780
 8967SOL     OW38239   4.599   3.508   7.785
 8967SOL    HW138240   4.522   3.473   7.731
 8967SOL    HW238241   4.567   3.579   7.847
 8968SOL     OW38242   3.954   2.490   9.423
 8968SOL    HW138243   3.861   2.488   9.460
 8968SOL    HW238244   3.955   2.451   9.331
 8969SOL     OW38245   3.743   2.230   9.957
 8969SOL    HW138246   3.661   2.273   9.996
 8969SOL    HW238247   3.715   2.157   9.894
 8970SOL     OW38248   4.574   2.660  11.133
 8970SOL    HW138249   4.570   2.736  11.198
 8970SOL    HW238250   4.596   2.696  11.042
 8971SOL     OW38251   4.410   3.023  11.113
 8971SOL    HW138252   4.470   3.102  11.127
 8971SOL    HW238253   4.324   3.054  11.072
 8972SOL     OW38254   4.162   2.254  10.809
 8972SOL    HW138255   4.244   2.198  10.818
 8972SOL    HW238256   4.081   2.196  10.813
 8973SOL     OW38257   3.954   3.296   9.848
 8973SOL    HW138258   3.928   3.392   9.848
 8973SOL    HW238259   3.883   3.242   9.893
 8974SOL     OW38260   4.344   3.648  10.749
 8974SOL    HW138261   4.252   3.631  10.784
 8974SOL    HW238262   4.372   3.740  10.775
 8975SOL     OW38263   4.330   2.826   9.433
 8975SOL    HW138264   4.337   2.910   9.379
 8975SOL    HW238265   4.376   2.839   9.521
 8976SOL     OW38266   3.846   2.505   9.873
 8976SOL    HW138267   3.801   2.417   9.890
 8976SOL    HW238268   3.845   2.559   9.957
 8977SOL     OW38269   3.751   3.458   9.427
 8977SOL    HW138270   3.732   3.362   9.448
 8977SOL    HW238271   3.718   3.516   9.502
 8978SOL     OW38272   3.837   2.599  10.907
 8978SOL    HW138273   3.925   2.586  10.952
 8978SOL    HW238274   3.824   2.696  10.885
 8979SOL     OW38275   4.533   1.866   9.812
 8979SOL    HW138276   4.573   1.957   9.803
 8979SOL    HW238277   4.433   1.874   9.818
 8980SOL     OW38278   4.322   2.591   9.580
 8980SOL    HW138279   4.346   2.660   9.512
 8980SOL    HW238280   4.244   2.624   9.634
 8981SOL     OW38281   4.697   2.752  10.882
 8981SOL    HW138282   4.743   2.668  10.853
 8981SOL    HW238283   4.641   2.786  10.807
 8982SOL     OW38284   3.800   2.673  10.099
 8982SOL    HW138285   3.899   2.661  10.108
 8982SOL    HW238286   3.776   2.768  10.120
 8983SOL     OW38287   3.854   3.683  10.881
 8983SOL    HW138288   3.844   3.668  10.980
 8983SOL    HW238289   3.768   3.719  10.845
 8984SOL     OW38290   4.589   2.210   9.505
 8984SOL    HW138291   4.648   2.273   9.456
 8984SOL    HW238292   4.608   2.116   9.476
 8985SOL     OW38293   4.274   2.058  10.195
 8985SOL    HW138294   4.269   2.053  10.295
 8985SOL    HW238295   4.276   2.154  10.166
 8986SOL     OW38296   4.045   2.805   9.552
 8986SOL    HW138297   4.127   2.844   9.510
 8986SOL    HW238298   4.018   2.723   9.503
 8987SOL     OW38299   3.926   2.147  10.808
 8987SOL    HW138300   3.846   2.207  10.795
 8987SOL    HW238301   3.916   2.098  10.894
 8988SOL     OW38302   3.973   3.647  10.551
 8988SOL    HW138303   4.030   3.582  10.601
 8988SOL    HW238304   3.957   3.614  10.458
 8989SOL     OW38305   4.106   2.562   9.790
 8989SOL    HW138306   4.151   2.472   9.787
 8989SOL    HW238307   4.012   2.551   9.823
 8990SOL     OW38308   4.338   1.984   9.427
 8990SOL    HW138309   4.436   1.962   9.434
 8990SOL    HW238310   4.307   1.967   9.334
 8991SOL     OW38311   4.612   3.376  10.505
 8991SOL    HW138312   4.589   3.351  10.411
 8991SOL    HW238313   4.673   3.307  10.544
 8992SOL     OW38314   4.263   1.926   9.822
 8992SOL    HW138315   4.182   1.927   9.880
 8992SOL    HW238316   4.266   2.009   9.767
 8993SOL     OW38317   4.021   1.897   9.481
 8993SOL    HW138318   4.070   1.981   9.460
 8993SOL    HW238319   4.083   1.832   9.526
 8994SOL     OW38320   4.659   2.098   9.790
 8994SOL    HW138321   4.611   2.139   9.712
 8994SOL    HW238322   4.758   2.096   9.771
 8995SOL     OW38323   4.951   3.432  10.103
 8995SOL    HW138324   4.972   3.506  10.038
 8995SOL    HW238325   5.019   3.432  10.176
 8996SOL     OW38326   4.756   2.411   9.326
 8996SOL    HW138327   4.715   2.493   9.287
 8996SOL    HW238328   4.820   2.437   9.399
 8997SOL     OW38329   3.802   2.418  10.696
 8997SOL    HW138330   3.894   2.417  10.655
 8997SOL    HW238331   3.796   2.492  10.763
 8998SOL     OW38332   4.590   2.316   9.952
 8998SOL    HW138333   4.558   2.388   9.890
 8998SOL    HW238334   4.614   2.235   9.899
 8999SOL     OW38335   4.741   1.901  10.063
 8999SOL    HW138336   4.669   1.906   9.994
 8999SOL    HW238337   4.717   1.832  10.132
 9000SOL     OW38338   4.212   3.247   9.484
 9000SOL    HW138339   4.125   3.232   9.531
 9000SOL    HW238340   4.195   3.273   9.389
 9001SOL     OW38341   4.251   2.118   9.638
 9001SOL    HW138342   4.278   2.059   9.563
 9001SOL    HW238343   4.251   2.213   9.607
 9002SOL     OW38344   4.429   2.912   9.678
 9002SOL    HW138345   4.415   2.919   9.777
 9002SOL    HW238346   4.513   2.861   9.660
 9003SOL     OW38347   4.134   2.675  10.561
 9003SOL    HW138348   4.220   2.687  10.611
 9003SOL    HW238349   4.092   2.588  10.588
 9004SOL     OW38350   4.091   2.962   9.811
 9004SOL    HW138351   4.084   3.045   9.755
 9004SOL    HW238352   4.095   2.882   9.751
 9005SOL     OW38353   4.297   2.732  10.339
 9005SOL    HW138354   4.341   2.821  10.330
 9005SOL    HW238355   4.234   2.732  10.416
 9006SOL     OW38356   4.933   2.387   9.585
 9006SOL    HW138357   4.946   2.303   9.639
 9006SOL    HW238358   4.904   2.461   9.645
 9007SOL     OW38359   4.456   2.496  10.374
 9007SOL    HW138360   4.515   2.470  10.298
 9007SOL    HW238361   4.428   2.592  10.363
 9008SOL     OW38362   4.031   1.925   9.928
 9008SOL    HW138363   4.020   2.019   9.961
 9008SOL    HW238364   4.026   1.862  10.005
 9009SOL     OW38365   3.732   3.188   9.510
 9009SOL    HW138366   3.639   3.209   9.479
 9009SOL    HW238367   3.742   3.089   9.523
 9010SOL     OW38368   3.913   2.382  11.032
 9010SOL    HW138369   3.972   2.342  10.962
 9010SOL    HW238370   3.855   2.453  10.991
 9011SOL     OW38371   4.539   2.434   9.635
 9011SOL    HW138372   4.546   2.345   9.589
 9011SOL    HW238373   4.445   2.468   9.627
 9012SOL     OW38374   4.395   2.326  10.579
 9012SOL    HW138375   4.361   2.237  10.549
 9012SOL    HW238376   4.421   2.380  10.499
 9013SOL     OW38377   4.654   3.540  10.775
 9013SOL    HW138378   4.630   3.522  10.680
 9013SOL    HW238379   4.684   3.634  10.785
 9014SOL     OW38380   4.197   2.362   9.501
 9014SOL    HW138381   4.258   2.442   9.505
 9014SOL    HW238382   4.102   2.393   9.508
 9015SOL     OW38383   4.554   3.135  10.732
 9015SOL    HW138384   4.549   3.168  10.827
 9015SOL    HW238385   4.468   3.154  10.686
 9016SOL     OW38386   4.396   3.478   9.464
 9016SOL    HW138387   4.405   3.488   9.365
 9016SOL    HW238388   4.356   3.389   9.485
 9017SOL     OW38389   4.640   2.772   9.601
 9017SOL    HW138390   4.703   2.810   9.533
 9017SOL    HW238391   4.680   2.689   9.640
 9018SOL     OW38392   4.738   2.098  10.281
 9018SOL    HW138393   4.730   2.062  10.188
 9018SOL    HW238394   4.736   2.022  10.346
 9019SOL     OW38395   3.979   3.210   9.600
 9019SOL    HW138396   3.883   3.211   9.573
 9019SOL    HW238397   3.991   3.263   9.684
 9020SOL     OW38398   3.799   2.207   9.343
 9020SOL    HW138399   3.707   2.179   9.314
 9020SOL    HW238400   3.830   2.284   9.287
 9021SOL     OW38401   3.796   2.028   9.628
 9021SOL    HW138402   3.779   2.111   9.574
 9021SOL    HW238403   3.886   1.991   9.606
 9022SOL     OW38404   4.949   2.187   9.759
 9022SOL    HW138405   5.014   2.113   9.748
 9022SOL    HW238406   4.969   2.237   9.843
 9023SOL     OW38407   4.318   2.607   9.962
 9023SOL    HW138408   4.368   2.692   9.943
 9023SOL    HW238409   4.230   2.609   9.914
 9024SOL     OW38410   4.583   3.236   9.326
 9024SOL    HW138411   4.537   3.251   9.414
 9024SOL    HW238412   4.627   3.321   9.296
 9025SOL     OW38413   4.152   2.286   9.830
 9025SOL    HW138414   4.182   2.214   9.768
 9025SOL    HW238415   4.113   2.246   9.913
 9026SOL     OW38416   4.494   3.192   9.611
 9026SOL    HW138417   4.448   3.105   9.628
 9026SOL    HW238418   4.585   3.189   9.652
 9027SOL     OW38419   4.342   3.429  10.594
 9027SOL    HW138420   4.337   3.511  10.651
 9027SOL    HW238421   4.431   3.426  10.549
 9028SOL     OW38422   3.763   2.939   9.610
 9028SOL    HW138423   3.862   2.928   9.601
 9028SOL    HW238424   3.723   2.853   9.642
 9029SOL     OW38425   3.954   2.490  11.285
 9029SOL    HW138426   3.861   2.488  11.322
 9029SOL    HW238427   3.955   2.451  11.193
 9030SOL     OW38428   3.954   3.296  11.710
 9030SOL    HW138429   3.928   3.392  11.710
 9030SOL    HW238430   3.883   3.242  11.755
 9031SOL     OW38431   3.964   2.953  12.058
 9031SOL    HW138432   3.978   2.869  12.110
 9031SOL    HW238433   3.909   3.017  12.113
 9032SOL     OW38434   4.344   3.648  12.611
 9032SOL    HW138435   4.252   3.631  12.646
 9032SOL    HW238436   4.372   3.740  12.637
 9033SOL     OW38437   3.837   2.599  12.769
 9033SOL    HW138438   3.925   2.586  12.814
 9033SOL    HW238439   3.824   2.696  12.747
 9034SOL     OW38440   3.921   2.838  12.436
 9034SOL    HW138441   4.010   2.793  12.422
 9034SOL    HW238442   3.848   2.773  12.417
 9035SOL     OW38443   3.800   2.673  11.961
 9035SOL    HW138444   3.899   2.661  11.970
 9035SOL    HW238445   3.776   2.768  11.982
 9036SOL     OW38446   4.274   2.058  12.057
 9036SOL    HW138447   4.269   2.053  12.157
 9036SOL    HW238448   4.276   2.154  12.028
 9037SOL     OW38449   4.106   2.562  11.652
 9037SOL    HW138450   4.151   2.472  11.649
 9037SOL    HW238451   4.012   2.551  11.685
 9038SOL     OW38452   4.183   3.014  11.913
 9038SOL    HW138453   4.112   2.987  11.978
 9038SOL    HW238454   4.157   2.986  11.820
 9039SOL     OW38455   4.285   2.084  12.319
 9039SOL    HW138456   4.323   2.000  12.356
 9039SOL    HW238457   4.197   2.103  12.363
 9040SOL     OW38458   4.590   2.316  11.814
 9040SOL    HW138459   4.558   2.388  11.752
 9040SOL    HW238460   4.614   2.235  11.761
 9041SOL     OW38461   4.741   1.901  11.925
 9041SOL    HW138462   4.669   1.906  11.856
 9041SOL    HW238463   4.717   1.832  11.994
 9042SOL     OW38464   4.639   1.951  12.574
 9042SOL    HW138465   4.664   1.931  12.479
 9042SOL    HW238466   4.711   2.007  12.616
 9043SOL     OW38467   4.134   2.675  12.423
 9043SOL    HW138468   4.220   2.687  12.473
 9043SOL    HW238469   4.092   2.588  12.450
 9044SOL     OW38470   3.788   3.426  12.503
 9044SOL    HW138471   3.742   3.508  12.469
 9044SOL    HW238472   3.886   3.445  12.512
 9045SOL     OW38473   4.290   2.399  12.037
 9045SOL    HW138474   4.302   2.465  11.963
 9045SOL    HW238475   4.336   2.433  12.120
 9046SOL     OW38476   4.078   3.372  12.501
 9046SOL    HW138477   4.057   3.328  12.414
 9046SOL    HW238478   4.175   3.398  12.504
 9047SOL     OW38479   4.297   2.732  12.201
 9047SOL    HW138480   4.341   2.821  12.192
 9047SOL    HW238481   4.234   2.732  12.278
 9048SOL     OW38482   3.761   3.172  12.454
 9048SOL    HW138483   3.814   3.123  12.522
 9048SOL    HW238484   3.783   3.270  12.459
 9049SOL     OW38485   4.456   2.496  12.236
 9049SOL    HW138486   4.515   2.470  12.160
 9049SOL    HW238487   4.428   2.592  12.225
 9050SOL     OW38488   4.043   2.672  12.121
 9050SOL    HW138489   4.136   2.708  12.126
 9050SOL    HW238490   4.037   2.587  12.173
 9051SOL     OW38491   4.063   2.371  12.178
 9051SOL    HW138492   4.011   2.288  12.161
 9051SOL    HW238493   4.140   2.376  12.114
 9052SOL     OW38494   3.764   2.406  12.286
 9052SOL    HW138495   3.849   2.373  12.245
 9052SOL    HW238496   3.777   2.421  12.384
 9053SOL     OW38497   3.913   2.382  12.894
 9053SOL    HW138498   3.972   2.342  12.824
 9053SOL    HW238499   3.855   2.453  12.853
 9054SOL     OW38500   3.883   2.999  12.638
 9054SOL    HW138501   3.905   2.938  12.714
 9054SOL    HW238502   3.893   2.950  12.552
 9055SOL     OW38503   3.807   3.120  12.194
 9055SOL    HW138504   3.802   3.119  12.294
 9055SOL    HW238505   3.724   3.079  12.156
 9056SOL     OW38506   5.004   2.789  11.844
 9056SOL    HW138507   5.064   2.708  11.846
 9056SOL    HW238508   5.044   2.858  11.784
 9057SOL     OW38509   4.396   3.478  11.326
 9057SOL    HW138510   4.405   3.488  11.227
 9057SOL    HW238511   4.356   3.389  11.347
 9058SOL     OW38512   4.763   2.960  11.868
 9058SOL    HW138513   4.693   2.913  11.922
 9058SOL    HW238514   4.822   2.892  11.825
 9059SOL     OW38515   4.738   2.098  12.143
 9059SOL    HW138516   4.730   2.062  12.050
 9059SOL    HW238517   4.736   2.022  12.208
 9060SOL     OW38518   4.396   2.065  12.661
 9060SOL    HW138519   4.486   2.049  12.621
 9060SOL    HW238520   4.404   2.070  12.760
 9061SOL     OW38521   3.799   2.207  11.205
 9061SOL    HW138522   3.707   2.179  11.176
 9061SOL    HW238523   3.830   2.284  11.149
 9062SOL     OW38524   4.114   3.603  12.732
 9062SOL    HW138525   4.023   3.644  12.730
 9062SOL    HW238526   4.107   3.509  12.764
 9063SOL     OW38527   4.318   2.607  11.824
 9063SOL    HW138528   4.368   2.692  11.805
 9063SOL    HW238529   4.230   2.609  11.776
 9064SOL     OW38530   3.803   3.102  11.825
 9064SOL    HW138531   3.802   3.055  11.913
 9064SOL    HW238532   3.885   3.074  11.774
 9065SOL     OW38533   4.725   1.896  12.326
 9065SOL    HW138534   4.662   1.824  12.295
 9065SOL    HW238535   4.818   1.860  12.326
 9066SOL     OW38536   4.494   3.192  11.473
 9066SOL    HW138537   4.448   3.105  11.490
 9066SOL    HW238538   4.585   3.189  11.514
 9067SOL     OW38539   3.954   2.490  13.147
 9067SOL    HW138540   3.861   2.488  13.184
 9067SOL    HW238541   3.955   2.451  13.055
 9068SOL     OW38542   3.949   2.137  14.030
 9068SOL    HW138543   3.984   2.120  14.122
 9068SOL    HW238544   3.861   2.092  14.018
 9069SOL     OW38545   4.293   3.137  14.199
 9069SOL    HW138546   4.200   3.130  14.162
 9069SOL    HW238547   4.304   3.226  14.243
 9070SOL     OW38548   4.059   3.297  14.095
 9070SOL    HW138549   3.981   3.266  14.042
 9070SOL    HW238550   4.117   3.355  14.038
 9071SOL     OW38551   4.162   2.254  14.533
 9071SOL    HW138552   4.244   2.198  14.542
 9071SOL    HW238553   4.081   2.196  14.537
 9072SOL     OW38554   4.337   3.227  13.760
 9072SOL    HW138555   4.288   3.140  13.769
 9072SOL    HW238556   4.314   3.270  13.673
 9073SOL     OW38557   4.041   2.113  14.835
 9073SOL    HW138558   4.112   2.184  14.841
 9073SOL    HW238559   3.953   2.152  14.863
 9074SOL     OW38560   4.263   1.926  13.546
 9074SOL    HW138561   4.182   1.927  13.604
 9074SOL    HW238562   4.266   2.009  13.491
 9075SOL     OW38563   4.183   3.014  13.775
 9075SOL    HW138564   4.112   2.987  13.840
 9075SOL    HW238565   4.157   2.986  13.682
 9076SOL     OW38566   4.590   2.316  13.676
 9076SOL    HW138567   4.558   2.388  13.614
 9076SOL    HW238568   4.614   2.235  13.623
 9077SOL     OW38569   4.134   2.675  14.285
 9077SOL    HW138570   4.220   2.687  14.335
 9077SOL    HW238571   4.092   2.588  14.312
 9078SOL     OW38572   4.933   2.387  13.309
 9078SOL    HW138573   4.946   2.303  13.363
 9078SOL    HW238574   4.904   2.461  13.369
 9079SOL     OW38575   4.704   3.435  14.734
 9079SOL    HW138576   4.684   3.479  14.646
 9079SOL    HW238577   4.743   3.344  14.718
 9080SOL     OW38578   4.043   2.672  13.983
 9080SOL    HW138579   4.136   2.708  13.988
 9080SOL    HW238580   4.037   2.587  14.035
 9081SOL     OW38581   3.812   3.663  13.961
 9081SOL    HW138582   3.770   3.577  13.934
 9081SOL    HW238583   3.906   3.666  13.927
 9082SOL     OW38584   4.539   2.434  13.359
 9082SOL    HW138585   4.546   2.345  13.313
 9082SOL    HW238586   4.445   2.468  13.351
 9083SOL     OW38587   3.976   3.426  14.778
 9083SOL    HW138588   3.946   3.483  14.854
 9083SOL    HW238589   3.969   3.329  14.804
 9084SOL     OW38590   4.654   3.540  14.499
 9084SOL    HW138591   4.630   3.522  14.404
 9084SOL    HW238592   4.684   3.634  14.509
 9085SOL     OW38593   4.197   2.362  13.225
 9085SOL    HW138594   4.258   2.442  13.229
 9085SOL    HW238595   4.102   2.393  13.232
 9086SOL     OW38596   4.412   3.524  14.750
 9086SOL    HW138597   4.356   3.605  14.759
 9086SOL    HW238598   4.464   3.528  14.664
 9087SOL     OW38599   3.854   3.656  14.885
 9087SOL    HW138600   3.813   3.582  14.938
 9087SOL    HW238601   3.918   3.707  14.943
 9088SOL     OW38602   4.096   3.150  14.524
 9088SOL    HW138603   4.083   3.243  14.490
 9088SOL    HW238604   4.012   3.098  14.511
 9089SOL     OW38605   4.738   2.098  14.005
 9089SOL    HW138606   4.730   2.062  13.912
 9089SOL    HW238607   4.736   2.022  14.070
 9090SOL     OW38608   4.396   2.065  14.523
 9090SOL    HW138609   4.486   2.049  14.483
 9090SOL    HW238610   4.404   2.070  14.622
 9091SOL     OW38611   4.536   3.448  13.721
 9091SOL    HW138612   4.568   3.458  13.627
 9091SOL    HW238613   4.457   3.386  13.723
 9092SOL     OW38614   4.725   1.896  14.188
 9092SOL    HW138615   4.662   1.824  14.157
 9092SOL    HW238616   4.818   1.860  14.188
 9093SOL     OW38617   4.599   3.508  13.371
 9093SOL    HW138618   4.522   3.473  13.317
 9093SOL    HW238619   4.567   3.579  13.433
 9094SOL     OW38620   3.954   2.490  15.009
 9094SOL    HW138621   3.861   2.488  15.046
 9094SOL    HW238622   3.955   2.451  14.917
 9095SOL     OW38623   4.492   3.006  15.920
 9095SOL    HW138624   4.414   3.023  15.980
 9095SOL    HW238625   4.526   3.093  15.884
 9096SOL     OW38626   3.954   3.296  15.434
 9096SOL    HW138627   3.928   3.392  15.434
 9096SOL    HW238628   3.883   3.242  15.479
 9097SOL     OW38629   4.344   3.648  16.336
 9097SOL    HW138630   4.252   3.631  16.371
 9097SOL    HW238631   4.372   3.740  16.362
 9098SOL     OW38632   3.751   3.458  15.013
 9098SOL    HW138633   3.732   3.362  15.034
 9098SOL    HW238634   3.718   3.516  15.088
 9099SOL     OW38635   4.041   2.113  16.698
 9099SOL    HW138636   4.112   2.184  16.704
 9099SOL    HW238637   3.953   2.152  16.726
 9100SOL     OW38638   4.322   2.591  15.166
 9100SOL    HW138639   4.346   2.660  15.098
 9100SOL    HW238640   4.244   2.624  15.220
 9101SOL     OW38641   4.697   2.752  16.469
 9101SOL    HW138642   4.743   2.668  16.440
 9101SOL    HW238643   4.641   2.786  16.394
 9102SOL     OW38644   4.274   2.058  15.781
 9102SOL    HW138645   4.269   2.053  15.881
 9102SOL    HW238646   4.276   2.154  15.752
 9103SOL     OW38647   4.045   2.805  15.138
 9103SOL    HW138648   4.127   2.844  15.096
 9103SOL    HW238649   4.018   2.723  15.089
 9104SOL     OW38650   4.188   3.605  15.219
 9104SOL    HW138651   4.221   3.644  15.305
 9104SOL    HW238652   4.264   3.598  15.154
 9105SOL     OW38653   3.973   3.647  16.138
 9105SOL    HW138654   4.030   3.582  16.188
 9105SOL    HW238655   3.957   3.614  16.045
 9106SOL     OW38656   4.183   3.014  15.637
 9106SOL    HW138657   4.112   2.987  15.702
 9106SOL    HW238658   4.157   2.986  15.544
 9107SOL     OW38659   4.212   3.247  15.070
 9107SOL    HW138660   4.125   3.232  15.117
 9107SOL    HW238661   4.195   3.273  14.975
 9108SOL     OW38662   4.639   1.951  16.299
 9108SOL    HW138663   4.664   1.931  16.204
 9108SOL    HW238664   4.711   2.007  16.341
 9109SOL     OW38665   4.704   2.978  16.616
 9109SOL    HW138666   4.605   2.984  16.626
 9109SOL    HW238667   4.727   2.898  16.560
 9110SOL     OW38668   4.091   2.962  15.397
 9110SOL    HW138669   4.084   3.045  15.341
 9110SOL    HW238670   4.095   2.882  15.337
 9111SOL     OW38671   4.078   3.372  16.226
 9111SOL    HW138672   4.057   3.328  16.139
 9111SOL    HW238673   4.175   3.398  16.229
 9112SOL     OW38674   4.126   2.613  16.495
 9112SOL    HW138675   4.194   2.668  16.448
 9112SOL    HW238676   4.166   2.525  16.522
 9113SOL     OW38677   4.228   1.912  16.637
 9113SOL    HW138678   4.186   1.855  16.567
 9113SOL    HW238679   4.162   1.981  16.669
 9114SOL     OW38680   4.933   2.387  15.171
 9114SOL    HW138681   4.946   2.303  15.225
 9114SOL    HW238682   4.904   2.461  15.231
 9115SOL     OW38683   4.747   2.628  15.863
 9115SOL    HW138684   4.762   2.649  15.959
 9115SOL    HW238685   4.717   2.533  15.854
 9116SOL     OW38686   4.704   3.435  16.597
 9116SOL    HW138687   4.684   3.479  16.509
 9116SOL    HW238688   4.743   3.344  16.581
 9117SOL     OW38689   4.726   2.658  16.135
 9117SOL    HW138690   4.767   2.626  16.221
 9117SOL    HW238691   4.630   2.631  16.132
 9118SOL     OW38692   3.883   2.999  16.363
 9118SOL    HW138693   3.905   2.938  16.439
 9118SOL    HW238694   3.893   2.950  16.277
 9119SOL     OW38695   4.412   3.524  16.613
 9119SOL    HW138696   4.356   3.605  16.622
 9119SOL    HW238697   4.464   3.528  16.527
 9120SOL     OW38698   3.854   3.656  16.748
 9120SOL    HW138699   3.813   3.582  16.801
 9120SOL    HW238700   3.918   3.707  16.806
 9121SOL     OW38701   5.004   2.789  15.568
 9121SOL    HW138702   5.064   2.708  15.570
 9121SOL    HW238703   5.044   2.858  15.508
 9122SOL     OW38704   4.554   3.135  16.319
 9122SOL    HW138705   4.549   3.168  16.414
 9122SOL    HW238706   4.468   3.154  16.273
 9123SOL     OW38707   4.396   3.478  15.050
 9123SOL    HW138708   4.405   3.488  14.951
 9123SOL    HW238709   4.356   3.389  15.071
 9124SOL     OW38710   3.987   2.188  15.616
 9124SOL    HW138711   3.908   2.239  15.582
 9124SOL    HW238712   3.978   2.173  15.714
 9125SOL     OW38713   4.546   2.864  16.269
 9125SOL    HW138714   4.586   2.863  16.177
 9125SOL    HW238715   4.556   2.956  16.309
 9126SOL     OW38716   4.096   3.150  16.387
 9126SOL    HW138717   4.083   3.243  16.353
 9126SOL    HW238718   4.012   3.098  16.374
 9127SOL     OW38719   4.763   2.960  15.592
 9127SOL    HW138720   4.693   2.913  15.646
 9127SOL    HW238721   4.822   2.892  15.549
 9128SOL     OW38722   4.314   3.349  15.387
 9128SOL    HW138723   4.356   3.291  15.317
 9128SOL    HW238724   4.270   3.428  15.343
 9129SOL     OW38725   3.979   3.210  15.186
 9129SOL    HW138726   3.883   3.211  15.159
 9129SOL    HW238727   3.991   3.263  15.270
 9130SOL     OW38728   4.337   2.704  16.328
 9130SOL    HW138729   4.393   2.785  16.311
 9130SOL    HW238730   4.396   2.624  16.331
 9131SOL     OW38731   4.440   2.427  16.605
 9131SOL    HW138732   4.459   2.492  16.679
 9131SOL    HW238733   4.500   2.347  16.614
 9132SOL     OW38734   4.949   2.187  15.345
 9132SOL    HW138735   5.014   2.113  15.334
 9132SOL    HW238736   4.969   2.237  15.429
 9133SOL     OW38737   4.583   2.818  15.757
 9133SOL    HW138738   4.637   2.749  15.805
 9133SOL    HW238739   4.551   2.887  15.823
 9134SOL     OW38740   3.803   3.102  15.549
 9134SOL    HW138741   3.802   3.055  15.637
 9134SOL    HW238742   3.885   3.074  15.498
 9135SOL     OW38743   4.396   3.253  16.521
 9135SOL    HW138744   4.318   3.203  16.559
 9135SOL    HW238745   4.393   3.348  16.552
 9136SOL     OW38746   3.954   2.490  16.872
 9136SOL    HW138747   3.861   2.488  16.909
 9136SOL    HW238748   3.955   2.451  16.780
 9137SOL     OW38749   4.293   3.137  17.924
 9137SOL    HW138750   4.200   3.130  17.887
 9137SOL    HW238751   4.304   3.226  17.968
 9138SOL     OW38752   3.955   3.575  17.242
 9138SOL    HW138753   3.989   3.652  17.296
 9138SOL    HW238754   3.999   3.575  17.152
 9139SOL     OW38755   3.846   2.505  17.322
 9139SOL    HW138756   3.801   2.417  17.339
 9139SOL    HW238757   3.845   2.559  17.406
 9140SOL     OW38758   3.751   3.458  16.876
 9140SOL    HW138759   3.732   3.362  16.897
 9140SOL    HW238760   3.718   3.516  16.951
 9141SOL     OW38761   4.533   1.866  17.261
 9141SOL    HW138762   4.573   1.957  17.252
 9141SOL    HW238763   4.433   1.874  17.267
 9142SOL     OW38764   4.075   3.663  17.612
 9142SOL    HW138765   4.125   3.577  17.618
 9142SOL    HW238766   4.140   3.740  17.609
 9143SOL     OW38767   4.045   2.805  17.001
 9143SOL    HW138768   4.127   2.844  16.959
 9143SOL    HW238769   4.018   2.723  16.952
 9144SOL     OW38770   4.188   3.605  17.082
 9144SOL    HW138771   4.221   3.644  17.168
 9144SOL    HW238772   4.264   3.598  17.017
 9145SOL     OW38773   3.973   3.647  18.000
 9145SOL    HW138774   4.030   3.582  18.050
 9145SOL    HW238775   3.957   3.614  17.907
 9146SOL     OW38776   4.338   1.984  16.876
 9146SOL    HW138777   4.436   1.962  16.883
 9146SOL    HW238778   4.307   1.967  16.783
 9147SOL     OW38779   4.646   2.365  17.658
 9147SOL    HW138780   4.621   2.356  17.562
 9147SOL    HW238781   4.694   2.283  17.689
 9148SOL     OW38782   4.021   1.897  16.930
 9148SOL    HW138783   4.070   1.981  16.909
 9148SOL    HW238784   4.083   1.832  16.975
 9149SOL     OW38785   4.659   2.098  17.239
 9149SOL    HW138786   4.611   2.139  17.161
 9149SOL    HW238787   4.758   2.096  17.220
 9150SOL     OW38788   4.756   2.411  16.775
 9150SOL    HW138789   4.715   2.493  16.736
 9150SOL    HW238790   4.820   2.437  16.848
 9151SOL     OW38791   4.590   2.316  17.401
 9151SOL    HW138792   4.558   2.388  17.339
 9151SOL    HW238793   4.614   2.235  17.348
 9152SOL     OW38794   4.741   1.901  17.512
 9152SOL    HW138795   4.669   1.906  17.443
 9152SOL    HW238796   4.717   1.832  17.581
 9153SOL     OW38797   4.290   2.399  17.624
 9153SOL    HW138798   4.302   2.465  17.550
 9153SOL    HW238799   4.336   2.433  17.707
 9154SOL     OW38800   4.297   2.732  17.788
 9154SOL    HW138801   4.341   2.821  17.779
 9154SOL    HW238802   4.234   2.732  17.865
 9155SOL     OW38803   4.933   2.387  17.034
 9155SOL    HW138804   4.946   2.303  17.088
 9155SOL    HW238805   4.904   2.461  17.094
 9156SOL     OW38806   4.031   2.075  17.990
 9156SOL    HW138807   4.008   2.112  18.080
 9156SOL    HW238808   4.001   1.980  17.984
 9157SOL     OW38809   4.043   2.672  17.708
 9157SOL    HW138810   4.136   2.708  17.713
 9157SOL    HW238811   4.037   2.587  17.760
 9158SOL     OW38812   4.396   3.478  16.913
 9158SOL    HW138813   4.405   3.488  16.814
 9158SOL    HW238814   4.356   3.389  16.934
 9159SOL     OW38815   4.546   2.864  18.131
 9159SOL    HW138816   4.586   2.863  18.039
 9159SOL    HW238817   4.556   2.956  18.171
 9160SOL     OW38818   4.314   3.349  17.250
 9160SOL    HW138819   4.356   3.291  17.180
 9160SOL    HW238820   4.270   3.428  17.206
 9161SOL     OW38821   3.799   2.207  16.792
 9161SOL    HW138822   3.707   2.179  16.763
 9161SOL    HW238823   3.830   2.284  16.736
 9162SOL     OW38824   3.796   2.028  17.077
 9162SOL    HW138825   3.779   2.111  17.023
 9162SOL    HW238826   3.886   1.991  17.055
 9163SOL     OW38827   4.949   2.187  17.208
 9163SOL    HW138828   5.014   2.113  17.197
 9163SOL    HW238829   4.969   2.237  17.292
 9164SOL     OW38830   4.583   3.236  16.775
 9164SOL    HW138831   4.537   3.251  16.863
 9164SOL    HW238832   4.627   3.321  16.745
 9165SOL     OW38833   4.385   3.652  17.712
 9165SOL    HW138834   4.339   3.740  17.699
 9165SOL    HW238835   4.484   3.664  17.705
 9166SOL     OW38836   3.763   2.939  17.059
 9166SOL    HW138837   3.862   2.928  17.050
 9166SOL    HW238838   3.723   2.853  17.091
 9167SOL     OW38839   3.954   4.352   0.113
 9167SOL    HW138840   3.861   4.350   0.150
 9167SOL    HW238841   3.955   4.313   0.021
 9168SOL     OW38842   3.949   3.999   0.996
 9168SOL    HW138843   3.984   3.982   1.088
 9168SOL    HW238844   3.861   3.954   0.984
 9169SOL     OW38845   4.492   4.868   1.023
 9169SOL    HW138846   4.414   4.885   1.083
 9169SOL    HW238847   4.526   4.955   0.987
 9170SOL     OW38848   4.409   4.736   0.665
 9170SOL    HW138849   4.478   4.720   0.735
 9170SOL    HW238850   4.336   4.793   0.703
 9171SOL     OW38851   3.964   4.815   0.886
 9171SOL    HW138852   3.978   4.731   0.938
 9171SOL    HW238853   3.909   4.879   0.941
 9172SOL     OW38854   4.330   4.688   0.123
 9172SOL    HW138855   4.337   4.772   0.069
 9172SOL    HW238856   4.376   4.701   0.211
 9173SOL     OW38857   3.846   4.367   0.563
 9173SOL    HW138858   3.801   4.279   0.580
 9173SOL    HW238859   3.845   4.421   0.647
 9174SOL     OW38860   4.533   3.728   0.502
 9174SOL    HW138861   4.573   3.819   0.493
 9174SOL    HW238862   4.433   3.736   0.508
 9175SOL     OW38863   4.322   4.453   0.270
 9175SOL    HW138864   4.346   4.522   0.202
 9175SOL    HW238865   4.244   4.486   0.324
 9176SOL     OW38866   4.589   4.072   0.195
 9176SOL    HW138867   4.648   4.135   0.146
 9176SOL    HW238868   4.608   3.978   0.166
 9177SOL     OW38869   4.106   4.424   0.480
 9177SOL    HW138870   4.151   4.334   0.477
 9177SOL    HW238871   4.012   4.413   0.513
 9178SOL     OW38872   4.338   3.846   0.117
 9178SOL    HW138873   4.436   3.824   0.124
 9178SOL    HW238874   4.307   3.829   0.024
 9179SOL     OW38875   4.505   3.988   1.749
 9179SOL    HW138876   4.572   3.927   1.792
 9179SOL    HW238877   4.432   4.007   1.814
 9180SOL     OW38878   4.646   4.227   0.899
 9180SOL    HW138879   4.621   4.218   0.803
 9180SOL    HW238880   4.694   4.145   0.930
 9181SOL     OW38881   4.251   3.980   0.328
 9181SOL    HW138882   4.278   3.921   0.253
 9181SOL    HW238883   4.251   4.075   0.297
 9182SOL     OW38884   4.639   3.813   1.402
 9182SOL    HW138885   4.664   3.793   1.307
 9182SOL    HW238886   4.711   3.869   1.444
 9183SOL     OW38887   4.737   3.829   1.770
 9183SOL    HW138888   4.743   3.914   1.718
 9183SOL    HW238889   4.769   3.753   1.713
 9184SOL     OW38890   4.747   4.490   0.966
 9184SOL    HW138891   4.762   4.511   1.062
 9184SOL    HW238892   4.717   4.395   0.957
 9185SOL     OW38893   3.913   4.244   1.722
 9185SOL    HW138894   3.972   4.204   1.652
 9185SOL    HW238895   3.855   4.315   1.681
 9186SOL     OW38896   4.539   4.296   0.325
 9186SOL    HW138897   4.546   4.207   0.279
 9186SOL    HW238898   4.445   4.330   0.317
 9187SOL     OW38899   4.197   4.224   0.191
 9187SOL    HW138900   4.258   4.304   0.195
 9187SOL    HW238901   4.102   4.255   0.198
 9188SOL     OW38902   3.987   4.050   0.720
 9188SOL    HW138903   3.908   4.101   0.686
 9188SOL    HW238904   3.978   4.035   0.818
 9189SOL     OW38905   4.640   4.634   0.291
 9189SOL    HW138906   4.703   4.672   0.223
 9189SOL    HW238907   4.680   4.551   0.330
 9190SOL     OW38908   3.829   4.737   1.726
 9190SOL    HW138909   3.752   4.704   1.780
 9190SOL    HW238910   3.914   4.707   1.768
 9191SOL     OW38911   4.396   3.927   1.489
 9191SOL    HW138912   4.486   3.911   1.449
 9191SOL    HW238913   4.404   3.932   1.588
 9192SOL     OW38914   4.318   4.469   0.652
 9192SOL    HW138915   4.368   4.554   0.633
 9192SOL    HW238916   4.230   4.471   0.604
 9193SOL     OW38917   4.583   4.680   0.861
 9193SOL    HW138918   4.637   4.611   0.909
 9193SOL    HW238919   4.551   4.749   0.927
 9194SOL     OW38920   4.152   4.148   0.520
 9194SOL    HW138921   4.182   4.076   0.458
 9194SOL    HW238922   4.113   4.108   0.603
 9195SOL     OW38923   4.725   3.758   1.154
 9195SOL    HW138924   4.662   3.686   1.123
 9195SOL    HW238925   4.818   3.722   1.154
 9196SOL     OW38926   3.954   4.352   1.975
 9196SOL    HW138927   3.861   4.350   2.012
 9196SOL    HW238928   3.955   4.313   1.883
 9197SOL     OW38929   3.949   3.999   2.858
 9197SOL    HW138930   3.984   3.982   2.950
 9197SOL    HW238931   3.861   3.954   2.846
 9198SOL     OW38932   3.743   4.092   2.509
 9198SOL    HW138933   3.661   4.135   2.548
 9198SOL    HW238934   3.715   4.019   2.446
 9199SOL     OW38935   4.492   4.868   2.885
 9199SOL    HW138936   4.414   4.885   2.945
 9199SOL    HW238937   4.526   4.955   2.849
 9200SOL     OW38938   4.574   4.522   3.685
 9200SOL    HW138939   4.570   4.598   3.750
 9200SOL    HW238940   4.596   4.558   3.594
 9201SOL     OW38941   4.409   4.736   2.527
 9201SOL    HW138942   4.478   4.720   2.597
 9201SOL    HW238943   4.336   4.793   2.565
 9202SOL     OW38944   4.162   4.116   3.361
 9202SOL    HW138945   4.244   4.060   3.370
 9202SOL    HW238946   4.081   4.058   3.365
 9203SOL     OW38947   3.964   4.815   2.748
 9203SOL    HW138948   3.978   4.731   2.800
 9203SOL    HW238949   3.909   4.879   2.803
 9204SOL     OW38950   4.330   4.688   1.985
 9204SOL    HW138951   4.337   4.772   1.931
 9204SOL    HW238952   4.376   4.701   2.073
 9205SOL     OW38953   3.846   4.367   2.425
 9205SOL    HW138954   3.801   4.279   2.442
 9205SOL    HW238955   3.845   4.421   2.509
 9206SOL     OW38956   3.837   4.461   3.459
 9206SOL    HW138957   3.925   4.448   3.504
 9206SOL    HW238958   3.824   4.558   3.437
 9207SOL     OW38959   4.533   3.728   2.364
 9207SOL    HW138960   4.573   3.819   2.355
 9207SOL    HW238961   4.433   3.736   2.370
 9208SOL     OW38962   3.921   4.700   3.126
 9208SOL    HW138963   4.010   4.655   3.112
 9208SOL    HW238964   3.848   4.635   3.107
 9209SOL     OW38965   4.041   3.975   3.663
 9209SOL    HW138966   4.112   4.046   3.669
 9209SOL    HW238967   3.953   4.014   3.691
 9210SOL     OW38968   4.322   4.453   2.132
 9210SOL    HW138969   4.346   4.522   2.064
 9210SOL    HW238970   4.244   4.486   2.186
 9211SOL     OW38971   4.531   4.329   3.327
 9211SOL    HW138972   4.484   4.326   3.416
 9211SOL    HW238973   4.480   4.274   3.261
 9212SOL     OW38974   4.697   4.614   3.434
 9212SOL    HW138975   4.743   4.530   3.405
 9212SOL    HW238976   4.641   4.648   3.359
 9213SOL     OW38977   4.715   4.134   3.104
 9213SOL    HW138978   4.638   4.168   3.158
 9213SOL    HW238979   4.681   4.083   3.025
 9214SOL     OW38980   3.800   4.535   2.651
 9214SOL    HW138981   3.899   4.523   2.660
 9214SOL    HW238982   3.776   4.630   2.672
 9215SOL     OW38983   4.589   4.072   2.057
 9215SOL    HW138984   4.648   4.135   2.008
 9215SOL    HW238985   4.608   3.978   2.028
 9216SOL     OW38986   4.274   3.920   2.747
 9216SOL    HW138987   4.269   3.915   2.847
 9216SOL    HW238988   4.276   4.016   2.718
 9217SOL     OW38989   3.926   4.009   3.360
 9217SOL    HW138990   3.846   4.069   3.347
 9217SOL    HW238991   3.916   3.960   3.446
 9218SOL     OW38992   4.106   4.424   2.342
 9218SOL    HW138993   4.151   4.334   2.339
 9218SOL    HW238994   4.012   4.413   2.375
 9219SOL     OW38995   4.338   3.846   1.979
 9219SOL    HW138996   4.436   3.824   1.986
 9219SOL    HW238997   4.307   3.829   1.886
 9220SOL     OW38998   4.505   3.988   3.611
 9220SOL    HW138999   4.572   3.927   3.654
 9220SOL    HW239000   4.432   4.007   3.676
 9221SOL     OW39001   4.646   4.227   2.761
 9221SOL    HW139002   4.621   4.218   2.665
 9221SOL    HW239003   4.694   4.145   2.792
 9222SOL     OW39004   4.263   3.788   2.374
 9222SOL    HW139005   4.182   3.789   2.432
 9222SOL    HW239006   4.266   3.871   2.319
 9223SOL     OW39007   4.021   3.759   2.033
 9223SOL    HW139008   4.070   3.843   2.012
 9223SOL    HW239009   4.083   3.694   2.078
 9224SOL     OW39010   4.659   3.960   2.342
 9224SOL    HW139011   4.611   4.001   2.264
 9224SOL    HW239012   4.758   3.958   2.323
 9225SOL     OW39013   3.802   4.280   3.248
 9225SOL    HW139014   3.894   4.279   3.207
 9225SOL    HW239015   3.796   4.354   3.315
 9226SOL     OW39016   4.285   3.946   3.009
 9226SOL    HW139017   4.323   3.862   3.046
 9226SOL    HW239018   4.197   3.965   3.053
 9227SOL     OW39019   4.590   4.178   2.504
 9227SOL    HW139020   4.558   4.250   2.442
 9227SOL    HW239021   4.614   4.097   2.451
 9228SOL     OW39022   4.741   3.763   2.615
 9228SOL    HW139023   4.669   3.768   2.546
 9228SOL    HW239024   4.717   3.694   2.684
 9229SOL     OW39025   4.251   3.980   2.190
 9229SOL    HW139026   4.278   3.921   2.115
 9229SOL    HW239027   4.251   4.075   2.159
 9230SOL     OW39028   4.639   3.813   3.264
 9230SOL    HW139029   4.664   3.793   3.169
 9230SOL    HW239030   4.711   3.869   3.306
 9231SOL     OW39031   4.134   4.537   3.113
 9231SOL    HW139032   4.220   4.549   3.163
 9231SOL    HW239033   4.092   4.450   3.140
 9232SOL     OW39034   4.290   4.261   2.727
 9232SOL    HW139035   4.302   4.327   2.653
 9232SOL    HW239036   4.336   4.295   2.810
 9233SOL     OW39037   4.126   4.475   3.460
 9233SOL    HW139038   4.194   4.530   3.413
 9233SOL    HW239039   4.166   4.387   3.487
 9234SOL     OW39040   4.737   3.829   3.632
 9234SOL    HW139041   4.743   3.914   3.580
 9234SOL    HW239042   4.769   3.753   3.575
 9235SOL     OW39043   4.228   3.774   3.602
 9235SOL    HW139044   4.186   3.717   3.532
 9235SOL    HW239045   4.162   3.843   3.634
 9236SOL     OW39046   4.297   4.594   2.891
 9236SOL    HW139047   4.341   4.683   2.882
 9236SOL    HW239048   4.234   4.594   2.968
 9237SOL     OW39049   4.933   4.249   2.137
 9237SOL    HW139050   4.946   4.165   2.191
 9237SOL    HW239051   4.904   4.323   2.197
 9238SOL     OW39052   4.031   3.937   3.093
 9238SOL    HW139053   4.008   3.974   3.183
 9238SOL    HW239054   4.001   3.842   3.087
 9239SOL     OW39055   4.456   4.358   2.926
 9239SOL    HW139056   4.515   4.332   2.850
 9239SOL    HW239057   4.428   4.454   2.915
 9240SOL     OW39058   4.031   3.787   2.480
 9240SOL    HW139059   4.020   3.881   2.513
 9240SOL    HW239060   4.026   3.724   2.557
 9241SOL     OW39061   4.747   4.490   2.828
 9241SOL    HW139062   4.762   4.511   2.924
 9241SOL    HW239063   4.717   4.395   2.819
 9242SOL     OW39064   4.074   4.622   3.666
 9242SOL    HW139065   4.150   4.666   3.714
 9242SOL    HW239066   4.109   4.575   3.584
 9243SOL     OW39067   4.043   4.534   2.811
 9243SOL    HW139068   4.136   4.570   2.816
 9243SOL    HW239069   4.037   4.449   2.863
 9244SOL     OW39070   4.063   4.233   2.868
 9244SOL    HW139071   4.011   4.150   2.851
 9244SOL    HW239072   4.140   4.238   2.804
 9245SOL     OW39073   4.726   4.520   3.100
 9245SOL    HW139074   4.767   4.488   3.186
 9245SOL    HW239075   4.630   4.493   3.097
 9246SOL     OW39076   3.764   4.268   2.976
 9246SOL    HW139077   3.849   4.235   2.935
 9246SOL    HW239078   3.777   4.283   3.074
 9247SOL     OW39079   3.913   4.244   3.584
 9247SOL    HW139080   3.972   4.204   3.514
 9247SOL    HW239081   3.855   4.315   3.543
 9248SOL     OW39082   4.539   4.296   2.187
 9248SOL    HW139083   4.546   4.207   2.141
 9248SOL    HW239084   4.445   4.330   2.179
 9249SOL     OW39085   4.395   4.188   3.131
 9249SOL    HW139086   4.361   4.099   3.101
 9249SOL    HW239087   4.421   4.242   3.051
 9250SOL     OW39088   4.197   4.224   2.053
 9250SOL    HW139089   4.258   4.304   2.057
 9250SOL    HW239090   4.102   4.255   2.060
 9251SOL     OW39091   3.883   4.861   3.328
 9251SOL    HW139092   3.905   4.800   3.404
 9251SOL    HW239093   3.893   4.812   3.242
 9252SOL     OW39094   5.026   4.579   2.171
 9252SOL    HW139095   4.940   4.548   2.213
 9252SOL    HW239096   5.022   4.565   2.072
 9253SOL     OW39097   3.987   4.050   2.582
 9253SOL    HW139098   3.908   4.101   2.548
 9253SOL    HW239099   3.978   4.035   2.680
 9254SOL     OW39100   4.640   4.634   2.153
 9254SOL    HW139101   4.703   4.672   2.085
 9254SOL    HW239102   4.680   4.551   2.192
 9255SOL     OW39103   4.738   3.960   2.833
 9255SOL    HW139104   4.730   3.924   2.740
 9255SOL    HW239105   4.736   3.884   2.898
 9256SOL     OW39106   3.829   4.737   3.588
 9256SOL    HW139107   3.752   4.704   3.642
 9256SOL    HW239108   3.914   4.707   3.630
 9257SOL     OW39109   4.396   3.927   3.351
 9257SOL    HW139110   4.486   3.911   3.311
 9257SOL    HW239111   4.404   3.932   3.450
 9258SOL     OW39112   3.799   4.069   1.895
 9258SOL    HW139113   3.707   4.041   1.866
 9258SOL    HW239114   3.830   4.146   1.839
 9259SOL     OW39115   3.796   3.890   2.180
 9259SOL    HW139116   3.779   3.973   2.126
 9259SOL    HW239117   3.886   3.853   2.158
 9260SOL     OW39118   4.337   4.566   3.293
 9260SOL    HW139119   4.393   4.647   3.276
 9260SOL    HW239120   4.396   4.486   3.296
 9261SOL     OW39121   4.440   4.289   3.570
 9261SOL    HW139122   4.459   4.354   3.644
 9261SOL    HW239123   4.500   4.209   3.579
 9262SOL     OW39124   4.949   4.049   2.311
 9262SOL    HW139125   5.014   3.975   2.300
 9262SOL    HW239126   4.969   4.099   2.395
 9263SOL     OW39127   4.318   4.469   2.514
 9263SOL    HW139128   4.368   4.554   2.495
 9263SOL    HW239129   4.230   4.471   2.466
 9264SOL     OW39130   4.583   4.680   2.723
 9264SOL    HW139131   4.637   4.611   2.771
 9264SOL    HW239132   4.551   4.749   2.789
 9265SOL     OW39133   3.803   4.964   2.515
 9265SOL    HW139134   3.802   4.917   2.603
 9265SOL    HW239135   3.885   4.936   2.464
 9266SOL     OW39136   4.152   4.148   2.382
 9266SOL    HW139137   4.182   4.076   2.320
 9266SOL    HW239138   4.113   4.108   2.465
 9267SOL     OW39139   4.041   4.271   3.142
 9267SOL    HW139140   4.079   4.212   3.214
 9267SOL    HW239141   4.081   4.245   3.054
 9268SOL     OW39142   4.725   3.758   3.016
 9268SOL    HW139143   4.662   3.686   2.985
 9268SOL    HW239144   4.818   3.722   3.016
 9269SOL     OW39145   3.763   4.801   2.162
 9269SOL    HW139146   3.862   4.790   2.153
 9269SOL    HW239147   3.723   4.715   2.194
 9270SOL     OW39148   3.954   4.352   3.837
 9270SOL    HW139149   3.861   4.350   3.874
 9270SOL    HW239150   3.955   4.313   3.745
 9271SOL     OW39151   3.949   3.999   4.720
 9271SOL    HW139152   3.984   3.982   4.812
 9271SOL    HW239153   3.861   3.954   4.708
 9272SOL     OW39154   3.743   4.092   4.371
 9272SOL    HW139155   3.661   4.135   4.410
 9272SOL    HW239156   3.715   4.019   4.308
 9273SOL     OW39157   4.492   4.868   4.747
 9273SOL    HW139158   4.414   4.885   4.807
 9273SOL    HW239159   4.526   4.955   4.711
 9274SOL     OW39160   4.574   4.522   5.547
 9274SOL    HW139161   4.570   4.598   5.612
 9274SOL    HW239162   4.596   4.558   5.456
 9275SOL     OW39163   4.409   4.736   4.389
 9275SOL    HW139164   4.478   4.720   4.459
 9275SOL    HW239165   4.336   4.793   4.427
 9276SOL     OW39166   4.162   4.116   5.223
 9276SOL    HW139167   4.244   4.060   5.232
 9276SOL    HW239168   4.081   4.058   5.227
 9277SOL     OW39169   3.964   4.815   4.610
 9277SOL    HW139170   3.978   4.731   4.662
 9277SOL    HW239171   3.909   4.879   4.665
 9278SOL     OW39172   4.330   4.688   3.847
 9278SOL    HW139173   4.337   4.772   3.793
 9278SOL    HW239174   4.376   4.701   3.935
 9279SOL     OW39175   3.846   4.367   4.287
 9279SOL    HW139176   3.801   4.279   4.304
 9279SOL    HW239177   3.845   4.421   4.371
 9280SOL     OW39178   3.837   4.461   5.321
 9280SOL    HW139179   3.925   4.448   5.366
 9280SOL    HW239180   3.824   4.558   5.299
 9281SOL     OW39181   4.533   3.728   4.226
 9281SOL    HW139182   4.573   3.819   4.217
 9281SOL    HW239183   4.433   3.736   4.232
 9282SOL     OW39184   3.921   4.700   4.988
 9282SOL    HW139185   4.010   4.655   4.974
 9282SOL    HW239186   3.848   4.635   4.969
 9283SOL     OW39187   4.041   3.975   5.525
 9283SOL    HW139188   4.112   4.046   5.531
 9283SOL    HW239189   3.953   4.014   5.553
 9284SOL     OW39190   4.322   4.453   3.994
 9284SOL    HW139191   4.346   4.522   3.926
 9284SOL    HW239192   4.244   4.486   4.048
 9285SOL     OW39193   4.531   4.329   5.189
 9285SOL    HW139194   4.484   4.326   5.278
 9285SOL    HW239195   4.480   4.274   5.123
 9286SOL     OW39196   4.697   4.614   5.296
 9286SOL    HW139197   4.743   4.530   5.267
 9286SOL    HW239198   4.641   4.648   5.221
 9287SOL     OW39199   4.715   4.134   4.966
 9287SOL    HW139200   4.638   4.168   5.020
 9287SOL    HW239201   4.681   4.083   4.887
 9288SOL     OW39202   3.800   4.535   4.513
 9288SOL    HW139203   3.899   4.523   4.522
 9288SOL    HW239204   3.776   4.630   4.534
 9289SOL     OW39205   4.589   4.072   3.919
 9289SOL    HW139206   4.648   4.135   3.870
 9289SOL    HW239207   4.608   3.978   3.890
 9290SOL     OW39208   4.274   3.920   4.609
 9290SOL    HW139209   4.269   3.915   4.709
 9290SOL    HW239210   4.276   4.016   4.580
 9291SOL     OW39211   3.926   4.009   5.222
 9291SOL    HW139212   3.846   4.069   5.209
 9291SOL    HW239213   3.916   3.960   5.308
 9292SOL     OW39214   4.106   4.424   4.204
 9292SOL    HW139215   4.151   4.334   4.201
 9292SOL    HW239216   4.012   4.413   4.237
 9293SOL     OW39217   4.338   3.846   3.841
 9293SOL    HW139218   4.436   3.824   3.848
 9293SOL    HW239219   4.307   3.829   3.748
 9294SOL     OW39220   4.505   3.988   5.473
 9294SOL    HW139221   4.572   3.927   5.516
 9294SOL    HW239222   4.432   4.007   5.538
 9295SOL     OW39223   4.646   4.227   4.623
 9295SOL    HW139224   4.621   4.218   4.527
 9295SOL    HW239225   4.694   4.145   4.654
 9296SOL     OW39226   4.263   3.788   4.236
 9296SOL    HW139227   4.182   3.789   4.294
 9296SOL    HW239228   4.266   3.871   4.181
 9297SOL     OW39229   4.021   3.759   3.895
 9297SOL    HW139230   4.070   3.843   3.874
 9297SOL    HW239231   4.083   3.694   3.940
 9298SOL     OW39232   4.659   3.960   4.204
 9298SOL    HW139233   4.611   4.001   4.126
 9298SOL    HW239234   4.758   3.958   4.185
 9299SOL     OW39235   4.756   4.273   3.740
 9299SOL    HW139236   4.715   4.355   3.701
 9299SOL    HW239237   4.820   4.299   3.813
 9300SOL     OW39238   3.802   4.280   5.110
 9300SOL    HW139239   3.894   4.279   5.069
 9300SOL    HW239240   3.796   4.354   5.177
 9301SOL     OW39241   4.285   3.946   4.871
 9301SOL    HW139242   4.323   3.862   4.908
 9301SOL    HW239243   4.197   3.965   4.915
 9302SOL     OW39244   4.590   4.178   4.366
 9302SOL    HW139245   4.558   4.250   4.304
 9302SOL    HW239246   4.614   4.097   4.313
 9303SOL     OW39247   4.741   3.763   4.477
 9303SOL    HW139248   4.669   3.768   4.408
 9303SOL    HW239249   4.717   3.694   4.546
 9304SOL     OW39250   4.251   3.980   4.052
 9304SOL    HW139251   4.278   3.921   3.977
 9304SOL    HW239252   4.251   4.075   4.021
 9305SOL     OW39253   4.639   3.813   5.126
 9305SOL    HW139254   4.664   3.793   5.031
 9305SOL    HW239255   4.711   3.869   5.168
 9306SOL     OW39256   4.134   4.537   4.975
 9306SOL    HW139257   4.220   4.549   5.025
 9306SOL    HW239258   4.092   4.450   5.002
 9307SOL     OW39259   4.290   4.261   4.589
 9307SOL    HW139260   4.302   4.327   4.515
 9307SOL    HW239261   4.336   4.295   4.672
 9308SOL     OW39262   4.126   4.475   5.322
 9308SOL    HW139263   4.194   4.530   5.275
 9308SOL    HW239264   4.166   4.387   5.349
 9309SOL     OW39265   4.737   3.829   5.494
 9309SOL    HW139266   4.743   3.914   5.442
 9309SOL    HW239267   4.769   3.753   5.437
 9310SOL     OW39268   4.228   3.774   5.464
 9310SOL    HW139269   4.186   3.717   5.394
 9310SOL    HW239270   4.162   3.843   5.496
 9311SOL     OW39271   4.297   4.594   4.753
 9311SOL    HW139272   4.341   4.683   4.744
 9311SOL    HW239273   4.234   4.594   4.830
 9312SOL     OW39274   4.933   4.249   3.999
 9312SOL    HW139275   4.946   4.165   4.053
 9312SOL    HW239276   4.904   4.323   4.059
 9313SOL     OW39277   4.031   3.937   4.955
 9313SOL    HW139278   4.008   3.974   5.045
 9313SOL    HW239279   4.001   3.842   4.949
 9314SOL     OW39280   4.456   4.358   4.788
 9314SOL    HW139281   4.515   4.332   4.712
 9314SOL    HW239282   4.428   4.454   4.777
 9315SOL     OW39283   4.031   3.787   4.342
 9315SOL    HW139284   4.020   3.881   4.375
 9315SOL    HW239285   4.026   3.724   4.419
 9316SOL     OW39286   4.747   4.490   4.690
 9316SOL    HW139287   4.762   4.511   4.786
 9316SOL    HW239288   4.717   4.395   4.681
 9317SOL     OW39289   4.074   4.622   5.528
 9317SOL    HW139290   4.150   4.666   5.576
 9317SOL    HW239291   4.109   4.575   5.446
 9318SOL     OW39292   4.043   4.534   4.673
 9318SOL    HW139293   4.136   4.570   4.678
 9318SOL    HW239294   4.037   4.449   4.725
 9319SOL     OW39295   4.063   4.233   4.730
 9319SOL    HW139296   4.011   4.150   4.713
 9319SOL    HW239297   4.140   4.238   4.666
 9320SOL     OW39298   4.726   4.520   4.962
 9320SOL    HW139299   4.767   4.488   5.048
 9320SOL    HW239300   4.630   4.493   4.959
 9321SOL     OW39301   3.764   4.268   4.838
 9321SOL    HW139302   3.849   4.235   4.797
 9321SOL    HW239303   3.777   4.283   4.936
 9322SOL     OW39304   3.913   4.244   5.446
 9322SOL    HW139305   3.972   4.204   5.376
 9322SOL    HW239306   3.855   4.315   5.405
 9323SOL     OW39307   4.539   4.296   4.049
 9323SOL    HW139308   4.546   4.207   4.003
 9323SOL    HW239309   4.445   4.330   4.041
 9324SOL     OW39310   4.395   4.188   4.993
 9324SOL    HW139311   4.361   4.099   4.963
 9324SOL    HW239312   4.421   4.242   4.913
 9325SOL     OW39313   4.197   4.224   3.915
 9325SOL    HW139314   4.258   4.304   3.919
 9325SOL    HW239315   4.102   4.255   3.922
 9326SOL     OW39316   3.883   4.861   5.190
 9326SOL    HW139317   3.905   4.800   5.266
 9326SOL    HW239318   3.893   4.812   5.104
 9327SOL     OW39319   5.026   4.579   4.033
 9327SOL    HW139320   4.940   4.548   4.075
 9327SOL    HW239321   5.022   4.565   3.934
 9328SOL     OW39322   3.987   4.050   4.444
 9328SOL    HW139323   3.908   4.101   4.410
 9328SOL    HW239324   3.978   4.035   4.542
 9329SOL     OW39325   4.640   4.634   4.015
 9329SOL    HW139326   4.703   4.672   3.947
 9329SOL    HW239327   4.680   4.551   4.054
 9330SOL     OW39328   4.738   3.960   4.695
 9330SOL    HW139329   4.730   3.924   4.602
 9330SOL    HW239330   4.736   3.884   4.760
 9331SOL     OW39331   3.829   4.737   5.450
 9331SOL    HW139332   3.752   4.704   5.504
 9331SOL    HW239333   3.914   4.707   5.492
 9332SOL     OW39334   4.396   3.927   5.213
 9332SOL    HW139335   4.486   3.911   5.173
 9332SOL    HW239336   4.404   3.932   5.312
 9333SOL     OW39337   3.799   4.069   3.757
 9333SOL    HW139338   3.707   4.041   3.728
 9333SOL    HW239339   3.830   4.146   3.701
 9334SOL     OW39340   3.796   3.890   4.042
 9334SOL    HW139341   3.779   3.973   3.988
 9334SOL    HW239342   3.886   3.853   4.020
 9335SOL     OW39343   4.337   4.566   5.155
 9335SOL    HW139344   4.393   4.647   5.138
 9335SOL    HW239345   4.396   4.486   5.158
 9336SOL     OW39346   4.440   4.289   5.432
 9336SOL    HW139347   4.459   4.354   5.506
 9336SOL    HW239348   4.500   4.209   5.441
 9337SOL     OW39349   4.949   4.049   4.173
 9337SOL    HW139350   5.014   3.975   4.162
 9337SOL    HW239351   4.969   4.099   4.257
 9338SOL     OW39352   4.318   4.469   4.376
 9338SOL    HW139353   4.368   4.554   4.357
 9338SOL    HW239354   4.230   4.471   4.328
 9339SOL     OW39355   4.583   4.680   4.585
 9339SOL    HW139356   4.637   4.611   4.633
 9339SOL    HW239357   4.551   4.749   4.651
 9340SOL     OW39358   3.803   4.964   4.377
 9340SOL    HW139359   3.802   4.917   4.465
 9340SOL    HW239360   3.885   4.936   4.326
 9341SOL     OW39361   4.152   4.148   4.244
 9341SOL    HW139362   4.182   4.076   4.182
 9341SOL    HW239363   4.113   4.108   4.327
 9342SOL     OW39364   4.041   4.271   5.004
 9342SOL    HW139365   4.079   4.212   5.076
 9342SOL    HW239366   4.081   4.245   4.916
 9343SOL     OW39367   4.725   3.758   4.878
 9343SOL    HW139368   4.662   3.686   4.847
 9343SOL    HW239369   4.818   3.722   4.878
 9344SOL     OW39370   3.763   4.801   4.024
 9344SOL    HW139371   3.862   4.790   4.015
 9344SOL    HW239372   3.723   4.715   4.056
 9345SOL     OW39373   3.954   4.352   5.699
 9345SOL    HW139374   3.861   4.350   5.736
 9345SOL    HW239375   3.955   4.313   5.607
 9346SOL     OW39376   3.949   3.999   6.582
 9346SOL    HW139377   3.984   3.982   6.674
 9346SOL    HW239378   3.861   3.954   6.570
 9347SOL     OW39379   3.743   4.092   6.233
 9347SOL    HW139380   3.661   4.135   6.272
 9347SOL    HW239381   3.715   4.019   6.170
 9348SOL     OW39382   4.492   4.868   6.609
 9348SOL    HW139383   4.414   4.885   6.669
 9348SOL    HW239384   4.526   4.955   6.573
 9349SOL     OW39385   4.574   4.522   7.409
 9349SOL    HW139386   4.570   4.598   7.474
 9349SOL    HW239387   4.596   4.558   7.318
 9350SOL     OW39388   4.409   4.736   6.251
 9350SOL    HW139389   4.478   4.720   6.321
 9350SOL    HW239390   4.336   4.793   6.289
 9351SOL     OW39391   4.162   4.116   7.085
 9351SOL    HW139392   4.244   4.060   7.094
 9351SOL    HW239393   4.081   4.058   7.089
 9352SOL     OW39394   3.964   4.815   6.472
 9352SOL    HW139395   3.978   4.731   6.524
 9352SOL    HW239396   3.909   4.879   6.527
 9353SOL     OW39397   4.330   4.688   5.709
 9353SOL    HW139398   4.337   4.772   5.655
 9353SOL    HW239399   4.376   4.701   5.797
 9354SOL     OW39400   3.846   4.367   6.149
 9354SOL    HW139401   3.801   4.279   6.166
 9354SOL    HW239402   3.845   4.421   6.233
 9355SOL     OW39403   3.837   4.461   7.183
 9355SOL    HW139404   3.925   4.448   7.228
 9355SOL    HW239405   3.824   4.558   7.161
 9356SOL     OW39406   4.533   3.728   6.088
 9356SOL    HW139407   4.573   3.819   6.079
 9356SOL    HW239408   4.433   3.736   6.094
 9357SOL     OW39409   3.921   4.700   6.850
 9357SOL    HW139410   4.010   4.655   6.836
 9357SOL    HW239411   3.848   4.635   6.831
 9358SOL     OW39412   4.322   4.453   5.856
 9358SOL    HW139413   4.346   4.522   5.788
 9358SOL    HW239414   4.244   4.486   5.910
 9359SOL     OW39415   4.531   4.329   7.051
 9359SOL    HW139416   4.484   4.326   7.140
 9359SOL    HW239417   4.480   4.274   6.985
 9360SOL     OW39418   4.697   4.614   7.158
 9360SOL    HW139419   4.743   4.530   7.129
 9360SOL    HW239420   4.641   4.648   7.083
 9361SOL     OW39421   4.715   4.134   6.828
 9361SOL    HW139422   4.638   4.168   6.882
 9361SOL    HW239423   4.681   4.083   6.749
 9362SOL     OW39424   3.800   4.535   6.375
 9362SOL    HW139425   3.899   4.523   6.384
 9362SOL    HW239426   3.776   4.630   6.396
 9363SOL     OW39427   4.589   4.072   5.781
 9363SOL    HW139428   4.648   4.135   5.732
 9363SOL    HW239429   4.608   3.978   5.752
 9364SOL     OW39430   4.274   3.920   6.471
 9364SOL    HW139431   4.269   3.915   6.571
 9364SOL    HW239432   4.276   4.016   6.442
 9365SOL     OW39433   3.926   4.009   7.084
 9365SOL    HW139434   3.846   4.069   7.071
 9365SOL    HW239435   3.916   3.960   7.170
 9366SOL     OW39436   4.106   4.424   6.066
 9366SOL    HW139437   4.151   4.334   6.063
 9366SOL    HW239438   4.012   4.413   6.099
 9367SOL     OW39439   4.338   3.846   5.703
 9367SOL    HW139440   4.436   3.824   5.710
 9367SOL    HW239441   4.307   3.829   5.610
 9368SOL     OW39442   4.505   3.988   7.335
 9368SOL    HW139443   4.572   3.927   7.378
 9368SOL    HW239444   4.432   4.007   7.400
 9369SOL     OW39445   4.646   4.227   6.485
 9369SOL    HW139446   4.621   4.218   6.389
 9369SOL    HW239447   4.694   4.145   6.516
 9370SOL     OW39448   4.263   3.788   6.098
 9370SOL    HW139449   4.182   3.789   6.156
 9370SOL    HW239450   4.266   3.871   6.043
 9371SOL     OW39451   4.021   3.759   5.757
 9371SOL    HW139452   4.070   3.843   5.736
 9371SOL    HW239453   4.083   3.694   5.802
 9372SOL     OW39454   4.659   3.960   6.066
 9372SOL    HW139455   4.611   4.001   5.988
 9372SOL    HW239456   4.758   3.958   6.047
 9373SOL     OW39457   4.756   4.273   5.602
 9373SOL    HW139458   4.715   4.355   5.563
 9373SOL    HW239459   4.820   4.299   5.675
 9374SOL     OW39460   3.802   4.280   6.972
 9374SOL    HW139461   3.894   4.279   6.931
 9374SOL    HW239462   3.796   4.354   7.039
 9375SOL     OW39463   4.285   3.946   6.733
 9375SOL    HW139464   4.323   3.862   6.770
 9375SOL    HW239465   4.197   3.965   6.777
 9376SOL     OW39466   4.590   4.178   6.228
 9376SOL    HW139467   4.558   4.250   6.166
 9376SOL    HW239468   4.614   4.097   6.175
 9377SOL     OW39469   4.741   3.763   6.339
 9377SOL    HW139470   4.669   3.768   6.270
 9377SOL    HW239471   4.717   3.694   6.408
 9378SOL     OW39472   4.251   3.980   5.914
 9378SOL    HW139473   4.278   3.921   5.839
 9378SOL    HW239474   4.251   4.075   5.883
 9379SOL     OW39475   4.639   3.813   6.988
 9379SOL    HW139476   4.664   3.793   6.893
 9379SOL    HW239477   4.711   3.869   7.030
 9380SOL     OW39478   4.134   4.537   6.837
 9380SOL    HW139479   4.220   4.549   6.887
 9380SOL    HW239480   4.092   4.450   6.864
 9381SOL     OW39481   4.290   4.261   6.451
 9381SOL    HW139482   4.302   4.327   6.377
 9381SOL    HW239483   4.336   4.295   6.534
 9382SOL     OW39484   4.126   4.475   7.184
 9382SOL    HW139485   4.194   4.530   7.137
 9382SOL    HW239486   4.166   4.387   7.211
 9383SOL     OW39487   4.737   3.829   7.356
 9383SOL    HW139488   4.743   3.914   7.304
 9383SOL    HW239489   4.769   3.753   7.299
 9384SOL     OW39490   4.228   3.774   7.326
 9384SOL    HW139491   4.186   3.717   7.256
 9384SOL    HW239492   4.162   3.843   7.358
 9385SOL     OW39493   4.297   4.594   6.615
 9385SOL    HW139494   4.341   4.683   6.606
 9385SOL    HW239495   4.234   4.594   6.692
 9386SOL     OW39496   4.933   4.249   5.861
 9386SOL    HW139497   4.946   4.165   5.915
 9386SOL    HW239498   4.904   4.323   5.921
 9387SOL     OW39499   4.031   3.937   6.817
 9387SOL    HW139500   4.008   3.974   6.907
 9387SOL    HW239501   4.001   3.842   6.811
 9388SOL     OW39502   4.456   4.358   6.650
 9388SOL    HW139503   4.515   4.332   6.574
 9388SOL    HW239504   4.428   4.454   6.639
 9389SOL     OW39505   4.031   3.787   6.204
 9389SOL    HW139506   4.020   3.881   6.237
 9389SOL    HW239507   4.026   3.724   6.281
 9390SOL     OW39508   4.747   4.490   6.552
 9390SOL    HW139509   4.762   4.511   6.648
 9390SOL    HW239510   4.717   4.395   6.543
 9391SOL     OW39511   4.074   4.622   7.390
 9391SOL    HW139512   4.150   4.666   7.438
 9391SOL    HW239513   4.109   4.575   7.308
 9392SOL     OW39514   4.043   4.534   6.535
 9392SOL    HW139515   4.136   4.570   6.540
 9392SOL    HW239516   4.037   4.449   6.587
 9393SOL     OW39517   4.063   4.233   6.592
 9393SOL    HW139518   4.011   4.150   6.575
 9393SOL    HW239519   4.140   4.238   6.528
 9394SOL     OW39520   4.726   4.520   6.824
 9394SOL    HW139521   4.767   4.488   6.910
 9394SOL    HW239522   4.630   4.493   6.821
 9395SOL     OW39523   3.764   4.268   6.700
 9395SOL    HW139524   3.849   4.235   6.659
 9395SOL    HW239525   3.777   4.283   6.798
 9396SOL     OW39526   3.913   4.244   7.308
 9396SOL    HW139527   3.972   4.204   7.238
 9396SOL    HW239528   3.855   4.315   7.267
 9397SOL     OW39529   4.539   4.296   5.911
 9397SOL    HW139530   4.546   4.207   5.865
 9397SOL    HW239531   4.445   4.330   5.903
 9398SOL     OW39532   4.395   4.188   6.855
 9398SOL    HW139533   4.361   4.099   6.825
 9398SOL    HW239534   4.421   4.242   6.775
 9399SOL     OW39535   4.197   4.224   5.777
 9399SOL    HW139536   4.258   4.304   5.781
 9399SOL    HW239537   4.102   4.255   5.784
 9400SOL     OW39538   3.883   4.861   7.052
 9400SOL    HW139539   3.905   4.800   7.128
 9400SOL    HW239540   3.893   4.812   6.966
 9401SOL     OW39541   5.026   4.579   5.895
 9401SOL    HW139542   4.940   4.548   5.937
 9401SOL    HW239543   5.022   4.565   5.796
 9402SOL     OW39544   3.987   4.050   6.306
 9402SOL    HW139545   3.908   4.101   6.272
 9402SOL    HW239546   3.978   4.035   6.404
 9403SOL     OW39547   4.640   4.634   5.877
 9403SOL    HW139548   4.703   4.672   5.809
 9403SOL    HW239549   4.680   4.551   5.916
 9404SOL     OW39550   4.738   3.960   6.557
 9404SOL    HW139551   4.730   3.924   6.464
 9404SOL    HW239552   4.736   3.884   6.622
 9405SOL     OW39553   3.829   4.737   7.312
 9405SOL    HW139554   3.752   4.704   7.366
 9405SOL    HW239555   3.914   4.707   7.354
 9406SOL     OW39556   4.396   3.927   7.075
 9406SOL    HW139557   4.486   3.911   7.035
 9406SOL    HW239558   4.404   3.932   7.174
 9407SOL     OW39559   3.799   4.069   5.619
 9407SOL    HW139560   3.707   4.041   5.590
 9407SOL    HW239561   3.830   4.146   5.563
 9408SOL     OW39562   3.796   3.890   5.904
 9408SOL    HW139563   3.779   3.973   5.850
 9408SOL    HW239564   3.886   3.853   5.882
 9409SOL     OW39565   4.337   4.566   7.017
 9409SOL    HW139566   4.393   4.647   7.000
 9409SOL    HW239567   4.396   4.486   7.020
 9410SOL     OW39568   4.440   4.289   7.294
 9410SOL    HW139569   4.459   4.354   7.368
 9410SOL    HW239570   4.500   4.209   7.303
 9411SOL     OW39571   4.949   4.049   6.035
 9411SOL    HW139572   5.014   3.975   6.024
 9411SOL    HW239573   4.969   4.099   6.119
 9412SOL     OW39574   4.318   4.469   6.238
 9412SOL    HW139575   4.368   4.554   6.219
 9412SOL    HW239576   4.230   4.471   6.190
 9413SOL     OW39577   4.583   4.680   6.447
 9413SOL    HW139578   4.637   4.611   6.495
 9413SOL    HW239579   4.551   4.749   6.513
 9414SOL     OW39580   3.803   4.964   6.239
 9414SOL    HW139581   3.802   4.917   6.327
 9414SOL    HW239582   3.885   4.936   6.188
 9415SOL     OW39583   4.152   4.148   6.106
 9415SOL    HW139584   4.182   4.076   6.044
 9415SOL    HW239585   4.113   4.108   6.189
 9416SOL     OW39586   4.041   4.271   6.866
 9416SOL    HW139587   4.079   4.212   6.938
 9416SOL    HW239588   4.081   4.245   6.778
 9417SOL     OW39589   4.725   3.758   6.740
 9417SOL    HW139590   4.662   3.686   6.709
 9417SOL    HW239591   4.818   3.722   6.740
 9418SOL     OW39592   3.763   4.801   5.886
 9418SOL    HW139593   3.862   4.790   5.877
 9418SOL    HW239594   3.723   4.715   5.918
 9419SOL     OW39595   3.954   4.352   7.561
 9419SOL    HW139596   3.861   4.350   7.598
 9419SOL    HW239597   3.955   4.313   7.469
 9420SOL     OW39598   3.949   3.999   8.444
 9420SOL    HW139599   3.984   3.982   8.536
 9420SOL    HW239600   3.861   3.954   8.432
 9421SOL     OW39601   3.743   4.092   8.095
 9421SOL    HW139602   3.661   4.135   8.134
 9421SOL    HW239603   3.715   4.019   8.032
 9422SOL     OW39604   4.492   4.868   8.471
 9422SOL    HW139605   4.414   4.885   8.531
 9422SOL    HW239606   4.526   4.955   8.435
 9423SOL     OW39607   4.409   4.736   8.113
 9423SOL    HW139608   4.478   4.720   8.183
 9423SOL    HW239609   4.336   4.793   8.151
 9424SOL     OW39610   4.162   4.116   8.947
 9424SOL    HW139611   4.244   4.060   8.956
 9424SOL    HW239612   4.081   4.058   8.951
 9425SOL     OW39613   3.964   4.815   8.334
 9425SOL    HW139614   3.978   4.731   8.386
 9425SOL    HW239615   3.909   4.879   8.389
 9426SOL     OW39616   4.330   4.688   7.571
 9426SOL    HW139617   4.337   4.772   7.517
 9426SOL    HW239618   4.376   4.701   7.659
 9427SOL     OW39619   3.846   4.367   8.011
 9427SOL    HW139620   3.801   4.279   8.028
 9427SOL    HW239621   3.845   4.421   8.095
 9428SOL     OW39622   3.837   4.461   9.045
 9428SOL    HW139623   3.925   4.448   9.090
 9428SOL    HW239624   3.824   4.558   9.023
 9429SOL     OW39625   4.533   3.728   7.950
 9429SOL    HW139626   4.573   3.819   7.941
 9429SOL    HW239627   4.433   3.736   7.956
 9430SOL     OW39628   3.921   4.700   8.712
 9430SOL    HW139629   4.010   4.655   8.698
 9430SOL    HW239630   3.848   4.635   8.693
 9431SOL     OW39631   4.041   3.975   9.249
 9431SOL    HW139632   4.112   4.046   9.255
 9431SOL    HW239633   3.953   4.014   9.277
 9432SOL     OW39634   4.322   4.453   7.718
 9432SOL    HW139635   4.346   4.522   7.650
 9432SOL    HW239636   4.244   4.486   7.772
 9433SOL     OW39637   4.531   4.329   8.913
 9433SOL    HW139638   4.484   4.326   9.002
 9433SOL    HW239639   4.480   4.274   8.847
 9434SOL     OW39640   4.715   4.134   8.690
 9434SOL    HW139641   4.638   4.168   8.744
 9434SOL    HW239642   4.681   4.083   8.611
 9435SOL     OW39643   3.800   4.535   8.237
 9435SOL    HW139644   3.899   4.523   8.246
 9435SOL    HW239645   3.776   4.630   8.258
 9436SOL     OW39646   4.589   4.072   7.643
 9436SOL    HW139647   4.648   4.135   7.594
 9436SOL    HW239648   4.608   3.978   7.614
 9437SOL     OW39649   4.274   3.920   8.333
 9437SOL    HW139650   4.269   3.915   8.433
 9437SOL    HW239651   4.276   4.016   8.304
 9438SOL     OW39652   3.926   4.009   8.946
 9438SOL    HW139653   3.846   4.069   8.933
 9438SOL    HW239654   3.916   3.960   9.032
 9439SOL     OW39655   4.106   4.424   7.928
 9439SOL    HW139656   4.151   4.334   7.925
 9439SOL    HW239657   4.012   4.413   7.961
 9440SOL     OW39658   4.338   3.846   7.565
 9440SOL    HW139659   4.436   3.824   7.572
 9440SOL    HW239660   4.307   3.829   7.472
 9441SOL     OW39661   4.505   3.988   9.197
 9441SOL    HW139662   4.572   3.927   9.240
 9441SOL    HW239663   4.432   4.007   9.262
 9442SOL     OW39664   4.646   4.227   8.347
 9442SOL    HW139665   4.621   4.218   8.251
 9442SOL    HW239666   4.694   4.145   8.378
 9443SOL     OW39667   4.263   3.788   7.960
 9443SOL    HW139668   4.182   3.789   8.018
 9443SOL    HW239669   4.266   3.871   7.905
 9444SOL     OW39670   4.021   3.759   7.619
 9444SOL    HW139671   4.070   3.843   7.598
 9444SOL    HW239672   4.083   3.694   7.664
 9445SOL     OW39673   4.659   3.960   7.928
 9445SOL    HW139674   4.611   4.001   7.850
 9445SOL    HW239675   4.758   3.958   7.909
 9446SOL     OW39676   4.756   4.273   7.464
 9446SOL    HW139677   4.715   4.355   7.425
 9446SOL    HW239678   4.820   4.299   7.537
 9447SOL     OW39679   3.802   4.280   8.834
 9447SOL    HW139680   3.894   4.279   8.793
 9447SOL    HW239681   3.796   4.354   8.901
 9448SOL     OW39682   4.285   3.946   8.595
 9448SOL    HW139683   4.323   3.862   8.632
 9448SOL    HW239684   4.197   3.965   8.639
 9449SOL     OW39685   4.590   4.178   8.090
 9449SOL    HW139686   4.558   4.250   8.028
 9449SOL    HW239687   4.614   4.097   8.037
 9450SOL     OW39688   4.741   3.763   8.201
 9450SOL    HW139689   4.669   3.768   8.132
 9450SOL    HW239690   4.717   3.694   8.270
 9451SOL     OW39691   4.251   3.980   7.776
 9451SOL    HW139692   4.278   3.921   7.701
 9451SOL    HW239693   4.251   4.075   7.745
 9452SOL     OW39694   4.639   3.813   8.850
 9452SOL    HW139695   4.664   3.793   8.755
 9452SOL    HW239696   4.711   3.869   8.892
 9453SOL     OW39697   4.134   4.537   8.699
 9453SOL    HW139698   4.220   4.549   8.749
 9453SOL    HW239699   4.092   4.450   8.726
 9454SOL     OW39700   4.290   4.261   8.313
 9454SOL    HW139701   4.302   4.327   8.239
 9454SOL    HW239702   4.336   4.295   8.396
 9455SOL     OW39703   4.126   4.475   9.046
 9455SOL    HW139704   4.194   4.530   8.999
 9455SOL    HW239705   4.166   4.387   9.073
 9456SOL     OW39706   4.228   3.774   9.188
 9456SOL    HW139707   4.186   3.717   9.118
 9456SOL    HW239708   4.162   3.843   9.220
 9457SOL     OW39709   4.933   4.249   7.723
 9457SOL    HW139710   4.946   4.165   7.777
 9457SOL    HW239711   4.904   4.323   7.783
 9458SOL     OW39712   4.031   3.937   8.679
 9458SOL    HW139713   4.008   3.974   8.769
 9458SOL    HW239714   4.001   3.842   8.673
 9459SOL     OW39715   4.456   4.358   8.512
 9459SOL    HW139716   4.515   4.332   8.436
 9459SOL    HW239717   4.428   4.454   8.501
 9460SOL     OW39718   4.031   3.787   8.066
 9460SOL    HW139719   4.020   3.881   8.099
 9460SOL    HW239720   4.026   3.724   8.143
 9461SOL     OW39721   4.043   4.534   8.397
 9461SOL    HW139722   4.136   4.570   8.402
 9461SOL    HW239723   4.037   4.449   8.449
 9462SOL     OW39724   4.063   4.233   8.454
 9462SOL    HW139725   4.011   4.150   8.437
 9462SOL    HW239726   4.140   4.238   8.390
 9463SOL     OW39727   3.764   4.268   8.562
 9463SOL    HW139728   3.849   4.235   8.521
 9463SOL    HW239729   3.777   4.283   8.660
 9464SOL     OW39730   3.913   4.244   9.170
 9464SOL    HW139731   3.972   4.204   9.100
 9464SOL    HW239732   3.855   4.315   9.129
 9465SOL     OW39733   4.539   4.296   7.773
 9465SOL    HW139734   4.546   4.207   7.727
 9465SOL    HW239735   4.445   4.330   7.765
 9466SOL     OW39736   4.395   4.188   8.717
 9466SOL    HW139737   4.361   4.099   8.687
 9466SOL    HW239738   4.421   4.242   8.637
 9467SOL     OW39739   4.197   4.224   7.639
 9467SOL    HW139740   4.258   4.304   7.643
 9467SOL    HW239741   4.102   4.255   7.646
 9468SOL     OW39742   3.883   4.861   8.914
 9468SOL    HW139743   3.905   4.800   8.990
 9468SOL    HW239744   3.893   4.812   8.828
 9469SOL     OW39745   5.026   4.579   7.757
 9469SOL    HW139746   4.940   4.548   7.799
 9469SOL    HW239747   5.022   4.565   7.658
 9470SOL     OW39748   3.987   4.050   8.168
 9470SOL    HW139749   3.908   4.101   8.134
 9470SOL    HW239750   3.978   4.035   8.266
 9471SOL     OW39751   4.640   4.634   7.739
 9471SOL    HW139752   4.703   4.672   7.671
 9471SOL    HW239753   4.680   4.551   7.778
 9472SOL     OW39754   4.738   3.960   8.419
 9472SOL    HW139755   4.730   3.924   8.326
 9472SOL    HW239756   4.736   3.884   8.484
 9473SOL     OW39757   3.829   4.737   9.174
 9473SOL    HW139758   3.752   4.704   9.228
 9473SOL    HW239759   3.914   4.707   9.216
 9474SOL     OW39760   4.396   3.927   8.937
 9474SOL    HW139761   4.486   3.911   8.897
 9474SOL    HW239762   4.404   3.932   9.036
 9475SOL     OW39763   3.799   4.069   7.481
 9475SOL    HW139764   3.707   4.041   7.452
 9475SOL    HW239765   3.830   4.146   7.425
 9476SOL     OW39766   3.796   3.890   7.766
 9476SOL    HW139767   3.779   3.973   7.712
 9476SOL    HW239768   3.886   3.853   7.744
 9477SOL     OW39769   4.949   4.049   7.897
 9477SOL    HW139770   5.014   3.975   7.886
 9477SOL    HW239771   4.969   4.099   7.981
 9478SOL     OW39772   4.318   4.469   8.100
 9478SOL    HW139773   4.368   4.554   8.081
 9478SOL    HW239774   4.230   4.471   8.052
 9479SOL     OW39775   3.803   4.964   8.101
 9479SOL    HW139776   3.802   4.917   8.189
 9479SOL    HW239777   3.885   4.936   8.050
 9480SOL     OW39778   4.152   4.148   7.968
 9480SOL    HW139779   4.182   4.076   7.906
 9480SOL    HW239780   4.113   4.108   8.051
 9481SOL     OW39781   4.041   4.271   8.728
 9481SOL    HW139782   4.079   4.212   8.800
 9481SOL    HW239783   4.081   4.245   8.640
 9482SOL     OW39784   4.725   3.758   8.602
 9482SOL    HW139785   4.662   3.686   8.571
 9482SOL    HW239786   4.818   3.722   8.602
 9483SOL     OW39787   3.763   4.801   7.748
 9483SOL    HW139788   3.862   4.790   7.739
 9483SOL    HW239789   3.723   4.715   7.780
 9484SOL     OW39790   4.492   4.868  10.333
 9484SOL    HW139791   4.414   4.885  10.393
 9484SOL    HW239792   4.526   4.955  10.297
 9485SOL     OW39793   4.409   4.736   9.975
 9485SOL    HW139794   4.478   4.720  10.045
 9485SOL    HW239795   4.336   4.793  10.013
 9486SOL     OW39796   3.964   4.815  10.196
 9486SOL    HW139797   3.978   4.731  10.248
 9486SOL    HW239798   3.909   4.879  10.251
 9487SOL     OW39799   4.041   3.975  11.111
 9487SOL    HW139800   4.112   4.046  11.117
 9487SOL    HW239801   3.953   4.014  11.139
 9488SOL     OW39802   4.697   4.614  10.882
 9488SOL    HW139803   4.743   4.530  10.853
 9488SOL    HW239804   4.641   4.648  10.807
 9489SOL     OW39805   3.800   4.535  10.099
 9489SOL    HW139806   3.899   4.523  10.108
 9489SOL    HW239807   3.776   4.630  10.120
 9490SOL     OW39808   4.659   3.960   9.790
 9490SOL    HW139809   4.611   4.001   9.712
 9490SOL    HW239810   4.758   3.958   9.771
 9491SOL     OW39811   4.285   3.946  10.457
 9491SOL    HW139812   4.323   3.862  10.494
 9491SOL    HW239813   4.197   3.965  10.501
 9492SOL     OW39814   4.134   4.537  10.561
 9492SOL    HW139815   4.220   4.549  10.611
 9492SOL    HW239816   4.092   4.450  10.588
 9493SOL     OW39817   4.290   4.261  10.175
 9493SOL    HW139818   4.302   4.327  10.101
 9493SOL    HW239819   4.336   4.295  10.258
 9494SOL     OW39820   4.297   4.594  10.339
 9494SOL    HW139821   4.341   4.683  10.330
 9494SOL    HW239822   4.234   4.594  10.416
 9495SOL     OW39823   4.456   4.358  10.374
 9495SOL    HW139824   4.515   4.332  10.298
 9495SOL    HW239825   4.428   4.454  10.363
 9496SOL     OW39826   4.747   4.490  10.276
 9496SOL    HW139827   4.762   4.511  10.372
 9496SOL    HW239828   4.717   4.395  10.267
 9497SOL     OW39829   4.043   4.534  10.259
 9497SOL    HW139830   4.136   4.570  10.264
 9497SOL    HW239831   4.037   4.449  10.311
 9498SOL     OW39832   4.063   4.233  10.316
 9498SOL    HW139833   4.011   4.150  10.299
 9498SOL    HW239834   4.140   4.238  10.252
 9499SOL     OW39835   4.726   4.520  10.548
 9499SOL    HW139836   4.767   4.488  10.634
 9499SOL    HW239837   4.630   4.493  10.545
 9500SOL     OW39838   4.539   4.296   9.635
 9500SOL    HW139839   4.546   4.207   9.589
 9500SOL    HW239840   4.445   4.330   9.627
 9501SOL     OW39841   4.395   4.188  10.579
 9501SOL    HW139842   4.361   4.099  10.549
 9501SOL    HW239843   4.421   4.242  10.499
 9502SOL     OW39844   4.738   3.960  10.281
 9502SOL    HW139845   4.730   3.924  10.188
 9502SOL    HW239846   4.736   3.884  10.346
 9503SOL     OW39847   3.799   4.069   9.343
 9503SOL    HW139848   3.707   4.041   9.314
 9503SOL    HW239849   3.830   4.146   9.287
 9504SOL     OW39850   4.583   4.680  10.171
 9504SOL    HW139851   4.637   4.611  10.219
 9504SOL    HW239852   4.551   4.749  10.237
 9505SOL     OW39853   3.803   4.964   9.963
 9505SOL    HW139854   3.802   4.917  10.051
 9505SOL    HW239855   3.885   4.936   9.912
 9506SOL     OW39856   4.725   3.758  10.464
 9506SOL    HW139857   4.662   3.686  10.433
 9506SOL    HW239858   4.818   3.722  10.464
 9507SOL     OW39859   3.763   4.801   9.610
 9507SOL    HW139860   3.862   4.790   9.601
 9507SOL    HW239861   3.723   4.715   9.642
 9508SOL     OW39862   3.743   4.092  11.819
 9508SOL    HW139863   3.661   4.135  11.858
 9508SOL    HW239864   3.715   4.019  11.756
 9509SOL     OW39865   4.162   4.116  12.671
 9509SOL    HW139866   4.244   4.060  12.680
 9509SOL    HW239867   4.081   4.058  12.675
 9510SOL     OW39868   3.964   4.815  12.058
 9510SOL    HW139869   3.978   4.731  12.110
 9510SOL    HW239870   3.909   4.879  12.113
 9511SOL     OW39871   3.837   4.461  12.769
 9511SOL    HW139872   3.925   4.448  12.814
 9511SOL    HW239873   3.824   4.558  12.747
 9512SOL     OW39874   3.921   4.700  12.436
 9512SOL    HW139875   4.010   4.655  12.422
 9512SOL    HW239876   3.848   4.635  12.417
 9513SOL     OW39877   4.041   3.975  12.973
 9513SOL    HW139878   4.112   4.046  12.979
 9513SOL    HW239879   3.953   4.014  13.001
 9514SOL     OW39880   4.322   4.453  11.442
 9514SOL    HW139881   4.346   4.522  11.374
 9514SOL    HW239882   4.244   4.486  11.496
 9515SOL     OW39883   4.531   4.329  12.637
 9515SOL    HW139884   4.484   4.326  12.726
 9515SOL    HW239885   4.480   4.274  12.571
 9516SOL     OW39886   4.697   4.614  12.744
 9516SOL    HW139887   4.743   4.530  12.715
 9516SOL    HW239888   4.641   4.648  12.669
 9517SOL     OW39889   4.589   4.072  11.367
 9517SOL    HW139890   4.648   4.135  11.318
 9517SOL    HW239891   4.608   3.978  11.338
 9518SOL     OW39892   3.926   4.009  12.670
 9518SOL    HW139893   3.846   4.069  12.657
 9518SOL    HW239894   3.916   3.960  12.756
 9519SOL     OW39895   4.756   4.273  11.188
 9519SOL    HW139896   4.715   4.355  11.149
 9519SOL    HW239897   4.820   4.299  11.261
 9520SOL     OW39898   3.802   4.280  12.558
 9520SOL    HW139899   3.894   4.279  12.517
 9520SOL    HW239900   3.796   4.354  12.625
 9521SOL     OW39901   4.285   3.946  12.319
 9521SOL    HW139902   4.323   3.862  12.356
 9521SOL    HW239903   4.197   3.965  12.363
 9522SOL     OW39904   4.126   4.475  12.770
 9522SOL    HW139905   4.194   4.530  12.723
 9522SOL    HW239906   4.166   4.387  12.797
 9523SOL     OW39907   4.228   3.774  12.912
 9523SOL    HW139908   4.186   3.717  12.842
 9523SOL    HW239909   4.162   3.843  12.944
 9524SOL     OW39910   4.933   4.249  11.447
 9524SOL    HW139911   4.946   4.165  11.501
 9524SOL    HW239912   4.904   4.323  11.507
 9525SOL     OW39913   4.031   3.937  12.403
 9525SOL    HW139914   4.008   3.974  12.493
 9525SOL    HW239915   4.001   3.842  12.397
 9526SOL     OW39916   4.074   4.622  12.976
 9526SOL    HW139917   4.150   4.666  13.024
 9526SOL    HW239918   4.109   4.575  12.894
 9527SOL     OW39919   4.063   4.233  12.178
 9527SOL    HW139920   4.011   4.150  12.161
 9527SOL    HW239921   4.140   4.238  12.114
 9528SOL     OW39922   3.764   4.268  12.286
 9528SOL    HW139923   3.849   4.235  12.245
 9528SOL    HW239924   3.777   4.283  12.384
 9529SOL     OW39925   3.913   4.244  12.894
 9529SOL    HW139926   3.972   4.204  12.824
 9529SOL    HW239927   3.855   4.315  12.853
 9530SOL     OW39928   4.539   4.296  11.497
 9530SOL    HW139929   4.546   4.207  11.451
 9530SOL    HW239930   4.445   4.330  11.489
 9531SOL     OW39931   4.395   4.188  12.441
 9531SOL    HW139932   4.361   4.099  12.411
 9531SOL    HW239933   4.421   4.242  12.361
 9532SOL     OW39934   5.026   4.579  11.481
 9532SOL    HW139935   4.940   4.548  11.523
 9532SOL    HW239936   5.022   4.565  11.382
 9533SOL     OW39937   4.640   4.634  11.463
 9533SOL    HW139938   4.703   4.672  11.395
 9533SOL    HW239939   4.680   4.551  11.502
 9534SOL     OW39940   3.829   4.737  12.898
 9534SOL    HW139941   3.752   4.704  12.952
 9534SOL    HW239942   3.914   4.707  12.940
 9535SOL     OW39943   4.396   3.927  12.661
 9535SOL    HW139944   4.486   3.911  12.621
 9535SOL    HW239945   4.404   3.932  12.760
 9536SOL     OW39946   4.440   4.289  12.880
 9536SOL    HW139947   4.459   4.354  12.954
 9536SOL    HW239948   4.500   4.209  12.889
 9537SOL     OW39949   4.949   4.049  11.621
 9537SOL    HW139950   5.014   3.975  11.610
 9537SOL    HW239951   4.969   4.099  11.705
 9538SOL     OW39952   4.318   4.469  11.824
 9538SOL    HW139953   4.368   4.554  11.805
 9538SOL    HW239954   4.230   4.471  11.776
 9539SOL     OW39955   4.041   4.271  12.452
 9539SOL    HW139956   4.079   4.212  12.524
 9539SOL    HW239957   4.081   4.245  12.364
 9540SOL     OW39958   3.949   3.999  14.030
 9540SOL    HW139959   3.984   3.982  14.122
 9540SOL    HW239960   3.861   3.954  14.018
 9541SOL     OW39961   4.162   4.116  14.533
 9541SOL    HW139962   4.244   4.060  14.542
 9541SOL    HW239963   4.081   4.058  14.537
 9542SOL     OW39964   3.964   4.815  13.920
 9542SOL    HW139965   3.978   4.731  13.972
 9542SOL    HW239966   3.909   4.879  13.975
 9543SOL     OW39967   4.330   4.688  13.157
 9543SOL    HW139968   4.337   4.772  13.103
 9543SOL    HW239969   4.376   4.701  13.245
 9544SOL     OW39970   3.837   4.461  14.631
 9544SOL    HW139971   3.925   4.448  14.676
 9544SOL    HW239972   3.824   4.558  14.609
 9545SOL     OW39973   4.041   3.975  14.835
 9545SOL    HW139974   4.112   4.046  14.841
 9545SOL    HW239975   3.953   4.014  14.863
 9546SOL     OW39976   4.505   3.988  14.783
 9546SOL    HW139977   4.572   3.927  14.826
 9546SOL    HW239978   4.432   4.007  14.848
 9547SOL     OW39979   4.021   3.759  13.205
 9547SOL    HW139980   4.070   3.843  13.184
 9547SOL    HW239981   4.083   3.694  13.250
 9548SOL     OW39982   4.590   4.178  13.676
 9548SOL    HW139983   4.558   4.250  13.614
 9548SOL    HW239984   4.614   4.097  13.623
 9549SOL     OW39985   4.126   4.475  14.632
 9549SOL    HW139986   4.194   4.530  14.585
 9549SOL    HW239987   4.166   4.387  14.659
 9550SOL     OW39988   4.228   3.774  14.774
 9550SOL    HW139989   4.186   3.717  14.704
 9550SOL    HW239990   4.162   3.843  14.806
 9551SOL     OW39991   4.297   4.594  14.063
 9551SOL    HW139992   4.341   4.683  14.054
 9551SOL    HW239993   4.234   4.594  14.140
 9552SOL     OW39994   4.031   3.787  13.652
 9552SOL    HW139995   4.020   3.881  13.685
 9552SOL    HW239996   4.026   3.724  13.729
 9553SOL     OW39997   4.043   4.534  13.983
 9553SOL    HW139998   4.136   4.570  13.988
 9553SOL    HW239999   4.037   4.449  14.035
 9554SOL     OW40000   4.063   4.233  14.040
 9554SOL    HW140001   4.011   4.150  14.023
 9554SOL    HW240002   4.140   4.238  13.976
 9555SOL     OW40003   4.726   4.520  14.272
 9555SOL    HW140004   4.767   4.488  14.358
 9555SOL    HW240005   4.630   4.493  14.269
 9556SOL     OW40006   3.913   4.244  14.756
 9556SOL    HW140007   3.972   4.204  14.686
 9556SOL    HW240008   3.855   4.315  14.715
 9557SOL     OW40009   3.987   4.050  13.754
 9557SOL    HW140010   3.908   4.101  13.720
 9557SOL    HW240011   3.978   4.035  13.852
 9558SOL     OW40012   4.738   3.960  14.005
 9558SOL    HW140013   4.730   3.924  13.912
 9558SOL    HW240014   4.736   3.884  14.070
 9559SOL     OW40015   3.829   4.737  14.760
 9559SOL    HW140016   3.752   4.704  14.814
 9559SOL    HW240017   3.914   4.707  14.802
 9560SOL     OW40018   4.396   3.927  14.523
 9560SOL    HW140019   4.486   3.911  14.483
 9560SOL    HW240020   4.404   3.932  14.622
 9561SOL     OW40021   4.725   3.758  14.188
 9561SOL    HW140022   4.662   3.686  14.157
 9561SOL    HW240023   4.818   3.722  14.188
 9562SOL     OW40024   3.743   4.092  15.543
 9562SOL    HW140025   3.661   4.135  15.582
 9562SOL    HW240026   3.715   4.019  15.480
 9563SOL     OW40027   4.041   3.975  16.698
 9563SOL    HW140028   4.112   4.046  16.704
 9563SOL    HW240029   3.953   4.014  16.726
 9564SOL     OW40030   4.715   4.134  16.139
 9564SOL    HW140031   4.638   4.168  16.193
 9564SOL    HW240032   4.681   4.083  16.060
 9565SOL     OW40033   4.274   3.920  15.781
 9565SOL    HW140034   4.269   3.915  15.881
 9565SOL    HW240035   4.276   4.016  15.752
 9566SOL     OW40036   4.505   3.988  16.646
 9566SOL    HW140037   4.572   3.927  16.689
 9566SOL    HW240038   4.432   4.007  16.711
 9567SOL     OW40039   4.021   3.759  15.067
 9567SOL    HW140040   4.070   3.843  15.046
 9567SOL    HW240041   4.083   3.694  15.112
 9568SOL     OW40042   3.802   4.280  16.283
 9568SOL    HW140043   3.894   4.279  16.242
 9568SOL    HW240044   3.796   4.354  16.350
 9569SOL     OW40045   4.285   3.946  16.044
 9569SOL    HW140046   4.323   3.862  16.081
 9569SOL    HW240047   4.197   3.965  16.088
 9570SOL     OW40048   4.251   3.980  15.224
 9570SOL    HW140049   4.278   3.921  15.149
 9570SOL    HW240050   4.251   4.075  15.193
 9571SOL     OW40051   4.639   3.813  16.299
 9571SOL    HW140052   4.664   3.793  16.204
 9571SOL    HW240053   4.711   3.869  16.341
 9572SOL     OW40054   4.737   3.829  16.667
 9572SOL    HW140055   4.743   3.914  16.615
 9572SOL    HW240056   4.769   3.753  16.610
 9573SOL     OW40057   4.228   3.774  16.637
 9573SOL    HW140058   4.186   3.717  16.567
 9573SOL    HW240059   4.162   3.843  16.669
 9574SOL     OW40060   4.933   4.249  15.171
 9574SOL    HW140061   4.946   4.165  15.225
 9574SOL    HW240062   4.904   4.323  15.231
 9575SOL     OW40063   5.026   4.579  15.205
 9575SOL    HW140064   4.940   4.548  15.247
 9575SOL    HW240065   5.022   4.565  15.106
 9576SOL     OW40066   3.987   4.050  15.616
 9576SOL    HW140067   3.908   4.101  15.582
 9576SOL    HW240068   3.978   4.035  15.714
 9577SOL     OW40069   4.640   4.634  15.187
 9577SOL    HW140070   4.703   4.672  15.119
 9577SOL    HW240071   4.680   4.551  15.226
 9578SOL     OW40072   4.396   3.927  16.386
 9578SOL    HW140073   4.486   3.911  16.346
 9578SOL    HW240074   4.404   3.932  16.485
 9579SOL     OW40075   3.799   4.069  14.929
 9579SOL    HW140076   3.707   4.041  14.900
 9579SOL    HW240077   3.830   4.146  14.873
 9580SOL     OW40078   3.796   3.890  15.214
 9580SOL    HW140079   3.779   3.973  15.160
 9580SOL    HW240080   3.886   3.853  15.192
 9581SOL     OW40081   4.440   4.289  16.605
 9581SOL    HW140082   4.459   4.354  16.679
 9581SOL    HW240083   4.500   4.209  16.614
 9582SOL     OW40084   4.949   4.049  15.345
 9582SOL    HW140085   5.014   3.975  15.334
 9582SOL    HW240086   4.969   4.099  15.429
 9583SOL     OW40087   4.152   4.148  15.416
 9583SOL    HW140088   4.182   4.076  15.354
 9583SOL    HW240089   4.113   4.108  15.499
 9584SOL     OW40090   3.949   3.999  17.755
 9584SOL    HW140091   3.984   3.982  17.847
 9584SOL    HW240092   3.861   3.954  17.743
 9585SOL     OW40093   3.743   4.092  17.406
 9585SOL    HW140094   3.661   4.135  17.445
 9585SOL    HW240095   3.715   4.019  17.343
 9586SOL     OW40096   3.846   4.367  17.322
 9586SOL    HW140097   3.801   4.279  17.339
 9586SOL    HW240098   3.845   4.421  17.406
 9587SOL     OW40099   3.800   4.535  17.548
 9587SOL    HW140100   3.899   4.523  17.557
 9587SOL    HW240101   3.776   4.630  17.569
 9588SOL     OW40102   4.589   4.072  16.954
 9588SOL    HW140103   4.648   4.135  16.905
 9588SOL    HW240104   4.608   3.978  16.925
 9589SOL     OW40105   4.106   4.424  17.239
 9589SOL    HW140106   4.151   4.334  17.236
 9589SOL    HW240107   4.012   4.413  17.272
 9590SOL     OW40108   4.338   3.846  16.876
 9590SOL    HW140109   4.436   3.824  16.883
 9590SOL    HW240110   4.307   3.829  16.783
 9591SOL     OW40111   4.263   3.788  17.271
 9591SOL    HW140112   4.182   3.789  17.329
 9591SOL    HW240113   4.266   3.871  17.216
 9592SOL     OW40114   4.021   3.759  16.930
 9592SOL    HW140115   4.070   3.843  16.909
 9592SOL    HW240116   4.083   3.694  16.975
 9593SOL     OW40117   4.251   3.980  17.087
 9593SOL    HW140118   4.278   3.921  17.012
 9593SOL    HW240119   4.251   4.075  17.056
 9594SOL     OW40120   4.933   4.249  17.034
 9594SOL    HW140121   4.946   4.165  17.088
 9594SOL    HW240122   4.904   4.323  17.094
 9595SOL     OW40123   4.031   3.937  17.990
 9595SOL    HW140124   4.008   3.974  18.080
 9595SOL    HW240125   4.001   3.842  17.984
 9596SOL     OW40126   4.031   3.787  17.377
 9596SOL    HW140127   4.020   3.881  17.410
 9596SOL    HW240128   4.026   3.724  17.454
 9597SOL     OW40129   4.747   4.490  17.725
 9597SOL    HW140130   4.762   4.511  17.821
 9597SOL    HW240131   4.717   4.395  17.716
 9598SOL     OW40132   4.726   4.520  17.997
 9598SOL    HW140133   4.767   4.488  18.083
 9598SOL    HW240134   4.630   4.493  17.994
 9599SOL     OW40135   4.539   4.296  17.084
 9599SOL    HW140136   4.546   4.207  17.038
 9599SOL    HW240137   4.445   4.330  17.076
 9600SOL     OW40138   4.395   4.188  18.028
 9600SOL    HW140139   4.361   4.099  17.998
 9600SOL    HW240140   4.421   4.242  17.948
 9601SOL     OW40141   4.197   4.224  16.950
 9601SOL    HW140142   4.258   4.304  16.954
 9601SOL    HW240143   4.102   4.255  16.957
 9602SOL     OW40144   3.987   4.050  17.479
 9602SOL    HW140145   3.908   4.101  17.445
 9602SOL    HW240146   3.978   4.035  17.577
 9603SOL     OW40147   4.949   4.049  17.208
 9603SOL    HW140148   5.014   3.975  17.197
 9603SOL    HW240149   4.969   4.099  17.292
 9604SOL     OW40150   3.803   4.964  17.412
 9604SOL    HW140151   3.802   4.917  17.500
 9604SOL    HW240152   3.885   4.936  17.361
 9605SOL     OW40153   4.152   4.148  17.279
 9605SOL    HW140154   4.182   4.076  17.217
 9605SOL    HW240155   4.113   4.108  17.362
   4.80470   4.80470  18.00000
